#LAMMPS input file of atoms generated by interface_master. The elements are: 1 C 2 Si 
 1166 atoms 
 
2 atom types 
 
0.00000000 34.78121475 xlo xhi 
0.00000000 21.53040367 ylo yhi 
0.00000000 18.64587653 zlo zhi 

-0.00000000 0.00000000 -10.76520183 xy xz yz 

Atoms 
 
1 2 8.6040860615808992 10.7652018332072146 18.6458765288485182
2 2 8.6040860615809027 -8.3343498063539716 15.6384770887116584
3 2 8.6040860615808956 -5.9034977795007304 12.6310776485748022
4 2 8.6040860615808992 -3.4726457526474888 9.6236782084379442
5 2 5.4467144786560562 -5.5562332042359808 10.4256513924744389
6 2 8.6040860615808974 -1.0417937257942462 6.6162787683010862
7 2 5.4467144786560562 -3.1253811773827396 7.4182519523375818
8 2 8.6040860615808974 1.3890583010589961 3.6088793281642291
9 2 5.4467144786560526 -0.6945291505294974 4.4108525122007247
10 2 2.2893428957312114 -2.7781166021179904 5.2128256962372195
11 2 8.6040860615808956 3.8199103279122371 0.6014798880273711
12 2 5.4467144786560526 1.7363228763237446 1.4034530720638667
13 2 2.2893428957312105 -0.3472645752647487 2.2054262561003624
14 2 8.6040860615809027 -4.5144394784417345 16.2399569767390304
15 2 5.4467144786560588 -6.5980269300302279 17.0419301607755251
16 2 2.2893428957312150 -8.6816143816187221 17.8439033448120234
17 2 8.6040860615808956 -2.0835874515884938 13.2325575366021742
18 2 5.4467144786560562 -4.1671749031769858 14.0345307206386689
19 2 2.2893428957312132 -6.2507623547654791 14.8365039046751637
20 2 8.6040860615809009 0.3472645752647499 10.2251580964653161
21 2 5.4467144786560571 -1.7363228763237437 11.0271312805018127
22 2 2.2893428957312132 -3.8199103279122371 11.8291044645383074
23 2 8.6040860615808974 2.7781166021179904 7.2177586563284573
24 2 5.4467144786560562 0.6945291505294992 8.0197318403649547
25 2 2.2893428957312119 -1.3890583010589947 8.8217050244014494
26 2 8.6040860615808974 5.2089686289712347 4.2103592161916010
27 2 5.4467144786560544 3.1253811773827405 5.0123324002280958
28 2 2.2893428957312110 1.0417937257942469 5.8143055842645905
29 2 8.6040860615808956 7.6398206558244777 1.2029597760547430
30 2 5.4467144786560526 5.5562332042359825 2.0049329600912382
31 2 2.2893428957312105 3.4726457526474879 2.8069061441277343
32 2 8.6040860615809009 -0.6945291505294986 16.8414368647664041
33 2 5.4467144786560571 -2.7781166021179895 17.6434100488028989
34 2 2.2893428957312159 -4.8617040537064842 18.4453832328393936
35 2 8.6040860615809009 1.7363228763237446 13.8340374246295461
36 2 5.4467144786560553 -0.3472645752647500 14.6360106086660426
37 2 2.2893428957312119 -2.4308520268532425 15.4379837927025374
38 2 8.6040860615808974 4.1671749031769876 10.8266379844926863
39 2 5.4467144786560571 2.0835874515884938 11.6286111685291811
40 2 2.2893428957312136 -0.0000000000000002 12.4305843525656812
41 2 8.6040860615808974 6.5980269300302297 7.8192385443558310
42 2 5.4467144786560562 4.5144394784417354 8.6212117283923249
43 2 2.2893428957312105 2.4308520268532434 9.4231849124288214
44 2 8.6040860615808974 9.0288789568834726 4.8118391042189730
45 2 5.4467144786560544 6.9452915052949793 5.6138122882554686
46 2 2.2893428957312105 4.8617040537064842 6.4157854722919643
47 2 8.6040860615808974 11.4597309837367121 1.8044396640821150
48 2 5.4467144786560517 9.3761435321482214 2.6064128481186102
49 2 2.2893428957312101 7.2925560805597263 3.4083860321551058
50 2 2.2893428957312092 9.7234081074129701 0.4009865920182481
51 2 8.6040860615809027 3.1253811773827431 17.4429167527937743
52 2 5.4467144786560571 1.0417937257942449 18.2448899368302726
53 2 8.6040860615809009 5.5562332042359843 14.4355173126569181
54 2 5.4467144786560571 3.4726457526474910 15.2374904966934128
55 2 2.2893428957312114 1.3890583010589965 16.0394636807299094
56 2 8.6040860615808974 7.9870852310892220 11.4281178725200601
57 2 5.4467144786560553 5.9034977795007304 12.2300910565565548
58 2 2.2893428957312141 3.8199103279122362 13.0320642405930514
59 2 8.6040860615808974 10.4179372579424658 8.4207184323832021
60 2 5.4467144786560544 8.3343498063539734 9.2226916164196968
61 2 2.2893428957312119 6.2507623547654818 10.0246648004561898
62 2 8.6040860615808974 12.8487892847957070 5.4133189922463449
63 2 5.4467144786560517 10.7652018332072164 6.2152921762828397
64 2 2.2893428957312114 8.6816143816187239 7.0172653603193353
65 2 8.6040860615808974 15.2796413116489482 2.4059195521094865
66 2 5.4467144786560517 13.1960538600604576 3.2078927361459826
67 2 2.2893428957312096 11.1124664084719633 4.0098659201824782
68 2 5.4467144786560535 15.6269058869136988 0.2004932960091246
69 2 2.2893428957312087 13.5433184353252045 1.0024664800456202
70 2 8.6040860615809027 6.9452915052949784 18.0443966408211480
71 2 8.6040860615809027 9.3761435321482178 15.0369972006842882
72 2 5.4467144786560544 7.2925560805597298 15.8389703847207848
73 2 2.2893428957312127 5.2089686289712311 16.6409435687572795
74 2 8.6040860615808992 11.8069955590014644 12.0295977605474338
75 2 5.4467144786560544 9.7234081074129683 12.8315709445839286
76 2 2.2893428957312141 7.6398206558244777 13.6335441286204233
77 2 8.6040860615808956 14.2378475858547038 9.0221983204105740
78 2 5.4467144786560526 12.1542601342662095 9.8241715044470688
79 2 2.2893428957312119 10.0706726826777153 10.6261446884835653
80 2 8.6040860615808956 16.6686996127079503 6.0147988802737160
81 2 5.4467144786560544 14.5851121611194561 6.8167720643102117
82 2 2.2893428957312110 12.5015247095309618 7.6187452483467073
83 2 8.6040860615808956 19.0995516395611915 3.0073994401368584
84 2 5.4467144786560517 17.0159641879726919 3.8093726241733541
85 2 2.2893428957312114 14.9323767363841995 4.6113458082098502
86 2 5.4467144786560517 19.4468162148259402 0.8019731840364966
87 2 2.2893428957312105 17.3632287632374478 1.6039463680729922
88 2 5.4467144786560571 11.1124664084719669 16.4404502727481550
89 2 2.2893428957312132 9.0288789568834673 17.2424234567846533
90 2 5.4467144786560571 13.5433184353252045 13.4330508326112987
91 2 2.2893428957312119 11.4597309837367103 14.2350240166477935
92 2 2.2893428957312105 13.8905830105899515 11.2276245765109373
93 2 2.2893428957312096 16.3214350374431980 8.2202251363740793
94 2 9.3934289573121070 -2.7781166021179904 5.2128256962372186
95 2 9.3934289573121070 -0.3472645752647486 2.2054262561003615
96 2 6.2360573743872649 10.7652018332072146 18.6458765288485182
97 2 9.3934289573121159 -8.6816143816187221 17.8439033448120234
98 2 9.3934289573121141 -6.2507623547654791 14.8365039046751637
99 2 6.2360573743872676 -8.3343498063539716 15.6384770887116584
100 2 9.3934289573121088 -3.8199103279122375 11.8291044645383074
101 2 6.2360573743872685 -5.9034977795007304 12.6310776485748022
102 2 9.3934289573121070 -1.3890583010589947 8.8217050244014494
103 2 6.2360573743872676 -3.4726457526474883 9.6236782084379442
104 2 3.0786857914624237 -5.5562332042359808 10.4256513924744389
105 2 9.3934289573121088 1.0417937257942462 5.8143055842645914
106 2 6.2360573743872667 -1.0417937257942462 6.6162787683010862
107 2 3.0786857914624228 -3.1253811773827396 7.4182519523375818
108 2 9.3934289573121070 3.4726457526474883 2.8069061441277334
109 2 6.2360573743872649 1.3890583010589947 3.6088793281642291
110 2 3.0786857914624224 -0.6945291505294974 4.4108525122007247
111 2 6.2360573743872649 3.8199103279122379 0.6014798880273713
112 2 3.0786857914624215 1.7363228763237439 1.4034530720638669
113 2 9.3934289573121141 -4.8617040537064824 18.4453832328393936
114 2 9.3934289573121106 -2.4308520268532434 15.4379837927025374
115 2 6.2360573743872676 -4.5144394784417345 16.2399569767390304
116 2 3.0786857914624250 -6.5980269300302288 17.0419301607755287
117 2 9.3934289573121070 0.0000000000000001 12.4305843525656776
118 2 6.2360573743872676 -2.0835874515884925 13.2325575366021724
119 2 3.0786857914624255 -4.1671749031769849 14.0345307206386671
120 2 9.3934289573121070 2.4308520268532434 9.4231849124288214
121 2 6.2360573743872667 0.3472645752647499 10.2251580964653161
122 2 3.0786857914624233 -1.7363228763237437 11.0271312805018127
123 2 9.3934289573121070 4.8617040537064842 6.4157854722919625
124 2 6.2360573743872685 2.7781166021179931 7.2177586563284573
125 2 3.0786857914624237 0.6945291505294986 8.0197318403649529
126 2 9.3934289573121070 7.2925560805597263 3.4083860321551045
127 2 6.2360573743872649 5.2089686289712329 4.2103592161916010
128 2 3.0786857914624219 3.1253811773827405 5.0123324002280958
129 2 9.3934289573121070 9.7234081074129701 0.4009865920182475
130 2 6.2360573743872649 7.6398206558244777 1.2029597760547432
131 2 3.0786857914624197 5.5562332042359817 2.0049329600912387
132 2 9.3934289573121106 1.3890583010589983 16.0394636807299094
133 2 6.2360573743872676 -0.6945291505294986 16.8414368647664041
134 2 3.0786857914624246 -2.7781166021179895 17.6434100488028989
135 2 9.3934289573121088 3.8199103279122362 13.0320642405930514
136 2 6.2360573743872676 1.7363228763237446 13.8340374246295461
137 2 3.0786857914624242 -0.3472645752647500 14.6360106086660426
138 2 9.3934289573121070 6.2507623547654809 10.0246648004561916
139 2 6.2360573743872676 4.1671749031769876 10.8266379844926863
140 2 3.0786857914624219 2.0835874515884938 11.6286111685291811
141 2 9.3934289573121070 8.6816143816187221 7.0172653603193353
142 2 6.2360573743872685 6.5980269300302306 7.8192385443558301
143 2 3.0786857914624233 4.5144394784417337 8.6212117283923266
144 2 9.3934289573121070 11.1124664084719651 4.0098659201824765
145 2 6.2360573743872649 9.0288789568834726 4.8118391042189730
146 2 3.0786857914624211 6.9452915052949757 5.6138122882554686
147 2 9.3934289573121070 13.5433184353252081 1.0024664800456196
148 2 6.2360573743872649 11.4597309837367121 1.8044396640821150
149 2 3.0786857914624211 9.3761435321482214 2.6064128481186106
150 2 9.3934289573121106 5.2089686289712356 16.6409435687572831
151 2 6.2360573743872649 3.1253811773827418 17.4429167527937778
152 2 3.0786857914624242 1.0417937257942449 18.2448899368302726
153 2 9.3934289573121106 7.6398206558244777 13.6335441286204233
154 2 6.2360573743872667 5.5562332042359799 14.4355173126569198
155 2 3.0786857914624237 3.4726457526474901 15.2374904966934146
156 2 9.3934289573121070 10.0706726826777153 10.6261446884835653
157 2 6.2360573743872649 7.9870852310892273 11.4281178725200601
158 2 3.0786857914624237 5.9034977795007295 12.2300910565565566
159 2 9.3934289573121070 12.5015247095309618 7.6187452483467064
160 2 6.2360573743872658 10.4179372579424658 8.4207184323832021
161 2 3.0786857914624233 8.3343498063539716 9.2226916164196986
162 2 9.3934289573121070 14.9323767363841995 4.6113458082098493
163 2 6.2360573743872614 12.8487892847957070 5.4133189922463449
164 2 3.0786857914624211 10.7652018332072128 6.2152921762828406
165 2 9.3934289573121070 17.3632287632374407 1.6039463680729913
166 2 6.2360573743872623 15.2796413116489482 2.4059195521094865
167 2 3.0786857914624206 13.1960538600604593 3.2078927361459826
168 2 3.0786857914624206 15.6269058869136988 0.2004932960091245
169 2 9.3934289573121141 9.0288789568834709 17.2424234567846497
170 2 6.2360573743872649 6.9452915052949784 18.0443966408211480
171 2 9.3934289573121141 11.4597309837367103 14.2350240166477935
172 2 6.2360573743872649 9.3761435321482161 15.0369972006842900
173 2 3.0786857914624250 7.2925560805597263 15.8389703847207848
174 2 9.3934289573121088 13.8905830105899586 11.2276245765109373
175 2 6.2360573743872649 11.8069955590014626 12.0295977605474320
176 2 3.0786857914624233 9.7234081074129683 12.8315709445839286
177 2 9.3934289573121088 16.3214350374431980 8.2202251363740793
178 2 6.2360573743872667 14.2378475858547038 9.0221983204105740
179 2 3.0786857914624224 12.1542601342662095 9.8241715044470688
180 2 6.2360573743872649 16.6686996127079503 6.0147988802737160
181 2 3.0786857914624202 14.5851121611194525 6.8167720643102117
182 2 6.2360573743872649 19.0995516395611915 3.0073994401368589
183 2 3.0786857914624211 17.0159641879726919 3.8093726241733545
184 2 3.0786857914624193 19.4468162148259402 0.8019731840364962
185 2 3.0786857914624215 11.1124664084719651 16.4404502727481585
186 2 3.0786857914624219 13.5433184353252045 13.4330508326112987
187 2 14.5318594025745291 11.2045978263993380 15.6016517894446789
188 2 14.5318594025745291 8.3485238706504870 16.7432360667211206
189 2 14.5318594025745291 5.4924499149016306 17.8848203439975606
190 2 14.5318594025745274 14.5000677753403213 11.4158427727643996
191 2 14.5318594025745274 11.6439938195914721 12.5574270500408360
192 2 14.5318594025745291 8.7879198638426157 13.6990113273172778
193 2 14.5318594025745291 5.9318459080937656 14.8405956045937160
194 2 14.5318594025745291 3.0757719523449141 15.9821798818701577
195 2 14.5318594025745291 0.2196979965960608 17.1237641591465959
196 2 14.5318594025745291 -2.6363759591527920 18.2653484364230358
197 2 14.5318594025745274 14.9394637685324554 8.3716180333605621
198 2 14.5318594025745274 12.0833898127836061 9.5132023106370003
199 2 14.5318594025745274 9.2273158570347480 10.6547865879134402
200 2 14.5318594025745274 6.3712419012858961 11.7963708651898802
201 2 14.5318594025745274 3.5151679455370433 12.9379551424663184
202 2 14.5318594025745291 0.6590939897881937 14.0795394197427548
203 2 14.5318594025745291 -2.1969799659606601 15.2211236970191983
204 2 14.5318594025745291 -5.0530539217095125 16.3627079742956383
205 2 14.5318594025745291 -7.9091278774583662 17.5042922515720747
206 2 14.5318594025745274 18.2349337174734387 4.1858090166802828
207 2 14.5318594025745274 15.3788597617245877 5.3273932939567210
208 2 14.5318594025745274 12.5227858059757367 6.4689775712331610
209 2 14.5318594025745274 9.6667118502268803 7.6105618485096000
210 2 14.5318594025745274 6.8106378944780257 8.7521461257860391
211 2 14.5318594025745274 3.9545639387291760 9.8937304030624791
212 2 14.5318594025745274 1.0984899829803234 11.0353146803389190
213 2 14.5318594025745274 -1.7575839727685290 12.1768989576153572
214 2 14.5318594025745274 -4.6136579285173802 13.3184832348917954
215 2 14.5318594025745291 -7.4697318842662330 14.4600675121682354
216 2 14.5318594025745274 18.6743297106655746 1.1415842772764422
217 2 14.5318594025745274 15.8182557549167182 2.2831685545528813
218 2 14.5318594025745274 12.9621817991678636 3.4247528318293208
219 2 14.5318594025745274 10.1061078434190126 4.5663371091057607
220 2 14.5318594025745274 7.2500338876701607 5.7079213863821998
221 2 14.5318594025745274 4.3939599319213078 6.8495056636586389
222 2 14.5318594025745274 1.5378859761724557 7.9910899409350780
223 2 14.5318594025745274 -1.3181879795763964 9.1326742182115179
224 2 14.5318594025745274 -4.1742619353252497 10.2742584954879579
225 2 14.5318594025745274 13.4015777923599977 0.3805280924254817
226 2 14.5318594025745274 10.5455038366111449 1.5221123697019210
227 2 14.5318594025745274 7.6894298808622921 2.6636966469783605
228 2 14.5318594025745274 4.8333559251134410 3.8052809242547996
229 2 14.5318594025745274 1.9772819693645887 4.9468652015312387
230 2 14.5318594025745274 -0.8787919863842640 6.0884494788076786
231 2 14.5318594025745274 -3.7348659421331170 7.2300337560841177
232 2 14.5318594025745274 5.2727519183055724 0.7610561848509602
233 2 14.5318594025745274 2.4166779625567205 1.9026404621273998
234 2 14.5318594025745274 -0.4393959931921326 3.0442247394038384
235 2 14.5318594025745291 10.7652018332072146 18.6458765288485182
236 2 19.5945905301745249 11.2045978263993344 15.6016517894446789
237 2 19.5945905301745249 8.3485238706504870 16.7432360667211206
238 2 19.5945905301745249 5.4924499149016288 17.8848203439975606
239 2 19.5945905301745249 14.5000677753403213 11.4158427727643996
240 2 19.5945905301745249 11.6439938195914703 12.5574270500408378
241 2 19.5945905301745249 8.7879198638426157 13.6990113273172778
242 2 19.5945905301745249 5.9318459080937656 14.8405956045937160
243 2 19.5945905301745249 3.0757719523449096 15.9821798818701559
244 2 19.5945905301745249 0.2196979965960608 17.1237641591465959
245 2 19.5945905301745249 -2.6363759591527929 18.2653484364230358
246 2 19.5945905301745249 14.9394637685324518 8.3716180333605621
247 2 19.5945905301745249 12.0833898127836026 9.5132023106369967
248 2 19.5945905301745249 9.2273158570347480 10.6547865879134402
249 2 19.5945905301745249 6.3712419012858961 11.7963708651898802
250 2 19.5945905301745249 3.5151679455370433 12.9379551424663184
251 2 19.5945905301745249 0.6590939897881919 14.0795394197427548
252 2 19.5945905301745249 -2.1969799659606601 15.2211236970191965
253 2 19.5945905301745249 -5.0530539217095134 16.3627079742956383
254 2 19.5945905301745249 -7.9091278774583671 17.5042922515720747
255 2 19.5945905301745249 18.2349337174734387 4.1858090166802819
256 2 19.5945905301745249 15.3788597617245841 5.3273932939567219
257 2 19.5945905301745249 12.5227858059757295 6.4689775712331601
258 2 19.5945905301745249 9.6667118502268803 7.6105618485095992
259 2 19.5945905301745249 6.8106378944780257 8.7521461257860391
260 2 19.5945905301745249 3.9545639387291756 9.8937304030624773
261 2 19.5945905301745249 1.0984899829803234 11.0353146803389190
262 2 19.5945905301745249 -1.7575839727685290 12.1768989576153572
263 2 19.5945905301745249 -4.6136579285173802 13.3184832348917936
264 2 19.5945905301745249 -7.4697318842662348 14.4600675121682354
265 2 19.5945905301745249 18.6743297106655710 1.1415842772764417
266 2 19.5945905301745249 15.8182557549167164 2.2831685545528808
267 2 19.5945905301745249 12.9621817991678636 3.4247528318293203
268 2 19.5945905301745249 10.1061078434190126 4.5663371091057607
269 2 19.5945905301745249 7.2500338876701589 5.7079213863821998
270 2 19.5945905301745249 4.3939599319213061 6.8495056636586389
271 2 19.5945905301745249 1.5378859761724539 7.9910899409350771
272 2 19.5945905301745249 -1.3181879795763969 9.1326742182115179
273 2 19.5945905301745249 -4.1742619353252506 10.2742584954879579
274 2 19.5945905301745249 13.4015777923599977 0.3805280924254814
275 2 19.5945905301745249 10.5455038366111449 1.5221123697019208
276 2 19.5945905301745249 7.6894298808622921 2.6636966469783601
277 2 19.5945905301745249 4.8333559251134410 3.8052809242547996
278 2 19.5945905301745249 1.9772819693645880 4.9468652015312395
279 2 19.5945905301745249 -0.8787919863842654 6.0884494788076786
280 2 19.5945905301745249 -3.7348659421331174 7.2300337560841177
281 2 19.5945905301745249 5.2727519183055724 0.7610561848509598
282 2 19.5945905301745249 2.4166779625567196 1.9026404621273991
283 2 19.5945905301745249 -0.4393959931921336 3.0442247394038389
284 2 19.5945905301745249 10.7652018332072110 18.6458765288485182
285 2 17.0643638758745269 10.1061078434190108 16.9969214616714375
286 2 17.0643638758745269 7.2500338876701580 18.1385057389478774
287 2 17.0643638758745269 13.4015777923599959 12.8111124449911582
288 2 17.0643638758745269 10.5455038366111449 13.9526967222675982
289 2 17.0643638758745269 7.6894298808622903 15.0942809995440363
290 2 17.0643638758745269 4.8333559251134384 16.2358652768204763
291 2 17.0643638758745269 1.9772819693645820 17.3774495540969163
292 2 17.0643638758745269 -0.8787919863842665 18.5190338313733562
293 2 17.0643638758745269 13.8409737855521264 9.7668877055873207
294 2 17.0643638758745269 10.9848998298032718 10.9084719828637589
295 2 17.0643638758745269 8.1288258740544208 12.0500562601401970
296 2 17.0643638758745269 5.2727519183055689 13.1916405374166370
297 2 17.0643638758745269 2.4166779625567165 14.3332248146930752
298 2 17.0643638758745269 -0.4393959931921342 15.4748090919695152
299 2 17.0643638758745269 -3.2954699489409878 16.6163933692459551
300 2 17.0643638758745269 -6.1515439046898415 17.7579776465223951
301 2 17.0643638758745304 17.1364437344931133 5.5810786889070405
302 2 17.0643638758745269 14.2803697787442587 6.7226629661834796
303 2 17.0643638758745269 11.4242958229954059 7.8642472434599187
304 2 17.0643638758745269 8.5682218672465531 9.0058315207363577
305 2 17.0643638758745269 5.7121479114977012 10.1474157980127959
306 2 17.0643638758745269 2.8560739557488493 11.2890000752892377
307 2 17.0643638758745269 -0.0000000000000031 12.4305843525656758
308 2 17.0643638758745269 -2.8560739557488555 13.5721686298421140
309 2 17.0643638758745269 -5.7121479114977083 14.7137529071185540
310 2 17.0643638758745269 -8.5682218672465620 15.8553371843949922
311 2 17.0643638758745304 20.4319136834340966 1.3952696722267606
312 2 17.0643638758745304 17.5758397276852456 2.5368539495031999
313 2 17.0643638758745304 14.7197657719363892 3.6784382267796394
314 2 17.0643638758745269 11.8636918161875382 4.8200225040560785
315 2 17.0643638758745269 9.0076178604386872 5.9616067813325175
316 2 17.0643638758745269 6.1515439046898335 7.1031910586089575
317 2 17.0643638758745269 3.2954699489409802 8.2447753358853983
318 2 17.0643638758745269 0.4393959931921282 9.3863596131618348
319 2 17.0643638758745269 -2.4166779625567236 10.5279438904382765
320 2 17.0643638758745269 -5.2727519183055769 11.6695281677147147
321 2 17.0643638758745304 15.1591617651285233 0.6342134873758004
322 2 17.0643638758745304 12.3030878093796705 1.7757977646522396
323 2 17.0643638758745304 9.4470138536308195 2.9173820419286787
324 2 17.0643638758745304 6.5909398978819667 4.0589663192051191
325 2 17.0643638758745269 3.7348659421331125 5.2005505964815590
326 2 17.0643638758745269 0.8787919863842598 6.3421348737579981
327 2 17.0643638758745269 -1.9772819693645929 7.4837191510344381
328 2 17.0643638758745269 -4.8333559251134455 8.6253034283108772
329 2 17.0643638758745304 7.0303358910740963 1.0147415798012800
330 2 17.0643638758745304 4.1742619353252435 2.1563258570777193
331 2 17.0643638758745304 1.3181879795763916 3.2979101343541584
332 2 17.0643638758745269 -1.5378859761724606 4.4394944116305979
333 2 17.0643638758745304 1.7575839727685234 0.2536853949503193
334 2 24.6565370756745281 11.2045978263993344 15.6016517894446789
335 2 24.6565370756745281 8.3485238706504834 16.7432360667211206
336 2 24.6565370756745281 5.4924499149016288 17.8848203439975606
337 2 24.6565370756745281 14.5000677753403213 11.4158427727643996
338 2 24.6565370756745281 11.6439938195914667 12.5574270500408378
339 2 24.6565370756745281 8.7879198638426157 13.6990113273172796
340 2 24.6565370756745281 5.9318459080937611 14.8405956045937177
341 2 24.6565370756745281 3.0757719523449123 15.9821798818701577
342 2 24.6565370756745281 0.2196979965960561 17.1237641591465959
343 2 24.6565370756745281 -2.6363759591527947 18.2653484364230358
344 2 24.6565370756745281 14.9394637685324518 8.3716180333605603
345 2 24.6565370756745281 12.0833898127836026 9.5132023106369985
346 2 24.6565370756745281 9.2273158570347480 10.6547865879134402
347 2 24.6565370756745281 6.3712419012858943 11.7963708651898820
348 2 24.6565370756745281 3.5151679455370419 12.9379551424663202
349 2 24.6565370756745281 0.6590939897881907 14.0795394197427566
350 2 24.6565370756745281 -2.1969799659606628 15.2211236970191983
351 2 24.6565370756745281 -5.0530539217095152 16.3627079742956383
352 2 24.6565370756745281 -7.9091278774583680 17.5042922515720782
353 2 24.6565370756745281 18.2349337174734387 4.1858090166802819
354 2 24.6565370756745281 15.3788597617245841 5.3273932939567210
355 2 24.6565370756745281 12.5227858059757331 6.4689775712331601
356 2 24.6565370756745281 9.6667118502268803 7.6105618485096000
357 2 24.6565370756745281 6.8106378944780257 8.7521461257860391
358 2 24.6565370756745281 3.9545639387291742 9.8937304030624791
359 2 24.6565370756745281 1.0984899829803216 11.0353146803389190
360 2 24.6565370756745281 -1.7575839727685307 12.1768989576153572
361 2 24.6565370756745281 -4.6136579285173820 13.3184832348917972
362 2 24.6565370756745281 -7.4697318842662366 14.4600675121682372
363 2 24.6565370756745281 18.6743297106655710 1.1415842772764415
364 2 24.6565370756745281 15.8182557549167164 2.2831685545528808
365 2 24.6565370756745281 12.9621817991678636 3.4247528318293199
366 2 24.6565370756745281 10.1061078434190108 4.5663371091057599
367 2 24.6565370756745281 7.2500338876701589 5.7079213863821989
368 2 24.6565370756745281 4.3939599319213043 6.8495056636586380
369 2 24.6565370756745281 1.5378859761724539 7.9910899409350771
370 2 24.6565370756745281 -1.3181879795763980 9.1326742182115161
371 2 24.6565370756745281 -4.1742619353252524 10.2742584954879579
372 2 24.6565370756745281 13.4015777923599977 0.3805280924254811
373 2 24.6565370756745281 10.5455038366111449 1.5221123697019205
374 2 24.6565370756745281 7.6894298808622903 2.6636966469783596
375 2 24.6565370756745281 4.8333559251134384 3.8052809242547987
376 2 24.6565370756745281 1.9772819693645869 4.9468652015312387
377 2 24.6565370756745281 -0.8787919863842661 6.0884494788076768
378 2 24.6565370756745281 -3.7348659421331187 7.2300337560841177
379 2 24.6565370756745281 5.2727519183055707 0.7610561848509596
380 2 24.6565370756745281 2.4166779625567192 1.9026404621273991
381 2 24.6565370756745281 -0.4393959931921341 3.0442247394038380
382 2 24.6565370756745281 10.7652018332072146 18.6458765288485182
383 2 34.7804301666745204 10.1061078434190108 16.9969214616714375
384 2 34.7804301666745204 7.2500338876701509 18.1385057389478774
385 2 34.7804301666745275 13.4015777923599906 12.8111124449911600
386 2 34.7804301666745275 10.5455038366111413 13.9526967222675982
387 2 34.7804301666745275 7.6894298808622858 15.0942809995440381
388 2 34.7804301666745275 4.8333559251134348 16.2358652768204763
389 2 34.7804301666745204 1.9772819693645789 17.3774495540969163
390 2 34.7804301666745204 -0.8787919863842700 18.5190338313733562
391 2 34.7804301666745275 13.8409737855521229 9.7668877055873189
392 2 34.7804301666745275 10.9848998298032736 10.9084719828637571
393 2 34.7804301666745275 8.1288258740544155 12.0500562601401988
394 2 34.7804301666745275 5.2727519183055636 13.1916405374166370
395 2 34.7804301666745275 2.4166779625567134 14.3332248146930770
396 2 34.7804301666745275 -0.4393959931921360 15.4748090919695152
397 2 34.7804301666745204 -3.2954699489409913 16.6163933692459551
398 2 34.7804301666745204 -6.1515439046898450 17.7579776465223951
399 2 34.7804301666745275 17.1364437344931062 5.5810786889070378
400 2 34.7804301666745275 14.2803697787442552 6.7226629661834787
401 2 34.7804301666745275 11.4242958229954041 7.8642472434599169
402 2 34.7804301666745275 8.5682218672465513 9.0058315207363577
403 2 34.7804301666745275 5.7121479114976994 10.1474157980127959
404 2 34.7804301666745275 2.8560739557488457 11.2890000752892359
405 2 34.7804301666745275 -0.0000000000000058 12.4305843525656758
406 2 34.7804301666745275 -2.8560739557488604 13.5721686298421158
407 2 34.7804301666745275 -5.7121479114977118 14.7137529071185540
408 2 34.7804301666745275 -8.5682218672465655 15.8553371843949940
409 2 34.7804301666745275 20.4319136834340931 1.3952696722267595
410 2 34.7804301666745275 17.5758397276852385 2.5368539495031985
411 2 34.7804301666745275 14.7197657719363875 3.6784382267796381
412 2 34.7804301666745275 11.8636918161875347 4.8200225040560776
413 2 34.7804301666745275 9.0076178604386818 5.9616067813325166
414 2 34.7804301666745275 6.1515439046898326 7.1031910586089566
415 2 34.7804301666745275 3.2954699489409776 8.2447753358853966
416 2 34.7804301666745275 0.4393959931921256 9.3863596131618348
417 2 34.7804301666745275 -2.4166779625567276 10.5279438904382747
418 2 34.7804301666745275 -5.2727519183055795 11.6695281677147129
419 2 34.7804301666745275 15.1591617651285180 0.6342134873757991
420 2 34.7804301666745275 12.3030878093796652 1.7757977646522385
421 2 34.7804301666745275 9.4470138536308141 2.9173820419286778
422 2 34.7804301666745275 6.5909398978819613 4.0589663192051173
423 2 34.7804301666745275 3.7348659421331103 5.2005505964815573
424 2 34.7804301666745275 0.8787919863842572 6.3421348737579972
425 2 34.7804301666745275 -1.9772819693645958 7.4837191510344363
426 2 34.7804301666745275 -4.8333559251134481 8.6253034283108754
427 2 34.7804301666745275 7.0303358910740927 1.0147415798012789
428 2 34.7804301666745275 4.1742619353252426 2.1563258570777180
429 2 34.7804301666745275 1.3181879795763884 3.2979101343541575
430 2 34.7804301666745275 -1.5378859761724635 4.4394944116305970
431 2 34.7804301666745275 1.7575839727685207 0.2536853949503182
432 2 27.1879785667745253 10.1061078434190108 16.9969214616714375
433 2 27.1879785667745253 7.2500338876701580 18.1385057389478774
434 2 27.1879785667745288 13.4015777923599941 12.8111124449911600
435 2 27.1879785667745288 10.5455038366111413 13.9526967222675982
436 2 27.1879785667745288 7.6894298808622894 15.0942809995440381
437 2 27.1879785667745288 4.8333559251134384 16.2358652768204763
438 2 27.1879785667745253 1.9772819693645807 17.3774495540969163
439 2 27.1879785667745253 -0.8787919863842700 18.5190338313733562
440 2 27.1879785667745288 13.8409737855521229 9.7668877055873189
441 2 27.1879785667745288 10.9848998298032718 10.9084719828637589
442 2 27.1879785667745288 8.1288258740544155 12.0500562601401970
443 2 27.1879785667745288 5.2727519183055671 13.1916405374166370
444 2 27.1879785667745288 2.4166779625567134 14.3332248146930770
445 2 27.1879785667745288 -0.4393959931921390 15.4748090919695169
446 2 27.1879785667745253 -3.2954699489409895 16.6163933692459551
447 2 27.1879785667745253 -6.1515439046898424 17.7579776465223951
448 2 27.1879785667745288 17.1364437344931098 5.5810786889070387
449 2 27.1879785667745288 14.2803697787442587 6.7226629661834787
450 2 27.1879785667745288 11.4242958229954041 7.8642472434599178
451 2 27.1879785667745288 8.5682218672465513 9.0058315207363577
452 2 27.1879785667745288 5.7121479114976985 10.1474157980127977
453 2 27.1879785667745288 2.8560739557488475 11.2890000752892359
454 2 27.1879785667745288 -0.0000000000000049 12.4305843525656758
455 2 27.1879785667745288 -2.8560739557488573 13.5721686298421140
456 2 27.1879785667745288 -5.7121479114977110 14.7137529071185540
457 2 27.1879785667745288 -8.5682218672465620 15.8553371843949940
458 2 27.1879785667745288 20.4319136834340966 1.3952696722267599
459 2 27.1879785667745288 17.5758397276852385 2.5368539495031994
460 2 27.1879785667745288 14.7197657719363857 3.6784382267796389
461 2 27.1879785667745288 11.8636918161875347 4.8200225040560776