#LAMMPS input file of atoms generated by interface_master. The elements are: 1 C 2 Si 
 3188 atoms 
 
2 atom types 
 
0.00000000 30.77782800 xlo xhi 
0.00000000 35.65174473 ylo yhi 
0.00000000 32.29628640 zlo zhi 

-0.00000000 -0.00000000 15.09956247 xy xz yz 

Atoms 
 
1 2 1.3671819999999923 32.4379128912298498 1.0485807273823253
2 2 4.1015459999999910 36.0630062630373160 3.3554583276234413
3 2 1.3671819999999932 27.8786294168453992 0.2097161454764657
4 2 4.1015459999999919 31.5037227886528690 2.5165937457175818
5 2 4.1015459999999928 26.9444393142684184 1.6777291638117220
6 2 4.1015459999999937 22.3851558398839714 0.8388645819058604
7 2 4.1015459999999955 32.9254348398050070 32.2962864033756318
8 2 1.3671819999999921 35.1288161604603246 4.8234713459586960
9 2 4.1015459999999901 38.7539095322677980 7.1303489461998115
10 2 1.3671819999999928 30.5695326860758883 3.9846067640528373
11 2 4.1015459999999919 34.1946260578833616 6.2914843642939520
12 2 1.3671819999999939 26.0102492116914448 3.1457421821469769
13 2 4.1015459999999919 29.6353425834989110 5.4526197823880924
14 2 1.3671819999999946 21.4509657373069977 2.3068776002411169
15 2 4.1015459999999937 25.0760591091144605 4.6137552004822311
16 2 1.3671819999999957 16.8916822629225436 1.4680130183352555
17 2 4.1015459999999955 20.5167756347300063 3.7748906185763724
18 2 1.3671819999999970 12.3323987885380966 0.6291484364293954
19 2 4.1015459999999955 15.9574921603455628 2.9360260366705111
20 2 4.1015459999999955 11.3982086859611158 2.0971614547646507
21 2 4.1015459999999972 6.8389252115766705 1.2582968728587904
22 2 4.1015459999999972 2.2796417371922240 0.4194322909529302
23 2 1.3671819999999919 37.8197194296908208 8.5983619645350693
24 2 1.3671819999999926 33.2604359553063631 7.7594973826292097
25 2 4.1015459999999919 36.8855293271138365 10.0663749828703235
26 2 1.3671819999999932 28.7011524809219161 6.9206328007233502
27 2 4.1015459999999919 32.3262458527293859 9.2275104009644657
28 2 1.3671819999999943 24.1418690065374761 6.0817682188174889
29 2 4.1015459999999937 27.7669623783449460 8.3886458190586044
30 2 1.3671819999999952 19.5825855321530291 5.2429036369116275
31 2 4.1015459999999955 23.2076789039604918 7.5497812371527440
32 2 1.3671819999999968 15.0233020577685874 4.4040390550057680
33 2 4.1015459999999955 18.6483954295760519 6.7109166552468835
34 2 1.3671819999999975 10.4640185833841350 3.5651744730999066
35 2 4.1015459999999955 14.0891119551916031 5.8720520733410240
36 2 1.3671819999999990 5.9047351089996889 2.7263098911940467
37 2 4.1015459999999972 9.5298284808071578 5.0331874914351626
38 2 1.3671819999999997 1.3454516346152430 1.8874453092881858
39 2 4.1015459999999972 4.9705450064227099 4.1943229095293031
40 2 1.3671819999999912 40.5106226989213098 12.3732525831114391
41 2 1.3671819999999923 35.9513392245368522 11.5343880012055795
42 2 4.1015459999999910 39.5764325963443184 13.8412656014466950
43 2 1.3671819999999932 31.3920557501524087 10.6955234192997199
44 2 4.1015459999999919 35.0171491219598821 13.0024010195408355
45 2 1.3671819999999943 26.8327722757679616 9.8566588373938586
46 2 4.1015459999999928 30.4578656475754315 12.1635364376349742
47 2 1.3671819999999950 22.2734888013835146 9.0177942554879973
48 2 4.1015459999999937 25.8985821731909809 11.3246718557291146
49 2 1.3671819999999966 17.7142053269990747 8.1789296735821395
50 2 4.1015459999999955 21.3392986988065338 10.4858072738232533
51 2 1.3671819999999972 13.1549218526146223 7.3400650916762782
52 2 4.1015459999999955 16.7800152244220904 9.6469426919173937
53 2 1.3671819999999981 8.5956383782301753 6.5012005097704177
54 2 4.1015459999999964 12.2207317500376416 8.8080781100115324
55 2 1.3671819999999992 4.0363549038457291 5.6623359278645573
56 2 4.1015459999999972 7.6614482756531963 7.9692135281056737
57 2 1.3671819999999919 38.6422424937673483 15.3092786197819546
58 2 4.1015459999999910 42.2673358655748075 17.6161562200230719
59 2 1.3671819999999926 34.0829590193828977 14.4704140378760950
60 2 4.1015459999999919 37.7080523911903640 16.7772916381172053
61 2 1.3671819999999937 29.5236755449984507 13.6315494559702302
62 2 4.1015459999999928 33.1487689168059134 15.9384270562113493
63 2 1.3671819999999946 24.9643920706140072 12.7926848740643688
64 2 4.1015459999999937 28.5894854424214735 15.0995624743054897
65 2 1.3671819999999959 20.4051085962295531 11.9538202921585093
66 2 4.1015459999999955 24.0302019680370229 14.2606978923996284
67 2 1.3671819999999970 15.8458251218451096 11.1149557102526497
68 2 4.1015459999999955 19.4709184936525759 13.4218333104937688
69 2 1.3671819999999979 11.2865416474606644 10.2760911283467884
70 2 4.1015459999999964 14.9116350192681253 12.5829687285879075
71 2 1.3671819999999992 6.7272581730762147 9.4372265464409271
72 2 4.1015459999999972 10.3523515448836818 11.7441041466820479
73 2 4.1015459999999981 5.7930680704992348 10.9052395647761831
74 2 1.3671819999999917 41.3331457629978303 19.0841692383583208
75 2 4.1015459999999901 44.9582391348052965 21.3910468385994434
76 2 1.3671819999999926 36.7738622886133797 18.2453046564524648
77 2 4.1015459999999910 40.3989556604208531 20.5521822566935839
78 2 1.3671819999999935 32.2145788142289362 17.4064400745466017
79 2 4.1015459999999919 35.8396721860364096 19.7133176747877243
80 2 1.3671819999999943 27.6552953398444892 16.5675754926407457
81 2 4.1015459999999928 31.2803887116519590 18.8744530928818612
82 2 1.3671819999999950 23.0960118654600421 15.7287109107348844
83 2 4.1015459999999955 26.7211052372675049 18.0355885109759946
84 2 1.3671819999999966 18.5367283910755987 14.8898463288290230
85 2 4.1015459999999955 22.1618217628830649 17.1967239290701386
86 2 1.3671819999999972 13.9774449166911481 14.0509817469231635
87 2 4.1015459999999955 17.6025382884986143 16.3578593471642755
88 2 1.3671819999999988 9.4181614423067010 13.2121171650173039
89 2 4.1015459999999964 13.0432548141141691 15.5189947652584177
90 2 4.1015459999999972 8.4839713397297221 14.6801301833525581
91 2 1.3671819999999915 44.0240490322283193 22.8590598569346959
92 2 1.3671819999999923 39.4647655578438687 22.0201952750288399
93 2 4.1015459999999910 43.0898589296513350 24.3270728752699554
94 2 1.3671819999999935 34.9054820834594253 21.1813306931229732
95 2 4.1015459999999919 38.5305754552668844 23.4882082933640888
96 2 1.3671819999999941 30.3461986090749747 20.3424661112171172
97 2 4.1015459999999928 33.9712919808824481 22.6493437114582328
98 2 1.3671819999999950 25.7869151346905312 19.5036015293112541
99 2 4.1015459999999955 29.4120085064979939 21.8104791295523697
100 2 1.3671819999999963 21.2276316603060806 18.6647369474053981
101 2 4.1015459999999955 24.8527250321135540 20.9716145476465137
102 2 1.3671819999999972 16.6683481859216371 17.8258723654995350
103 2 4.1015459999999964 20.2934415577291034 20.1327499657406470
104 2 1.3671819999999983 12.1090647115371883 16.9870077835936755
105 2 4.1015459999999964 15.7341580833446528 19.2938853838347910
106 2 1.3671819999999992 7.5497812371527413 16.1481432016878088
107 2 4.1015459999999972 11.1748746089602076 18.4550208019289279
108 2 1.3671819999999912 46.7149523014588084 26.6339504755110710
109 2 1.3671819999999919 42.1556688270743578 25.7950858936052043
110 2 4.1015459999999901 45.7807621988818170 28.1019634938463234
111 2 1.3671819999999928 37.5963853526899072 24.9562213116993519
112 2 4.1015459999999919 41.2214787244973806 27.2630989119404674
113 2 1.3671819999999937 33.0371018783054637 24.1173567297934852
114 2 4.1015459999999919 36.6621952501129300 26.4242343300346008
115 2 1.3671819999999946 28.4778184039210167 23.2784921478876292
116 2 4.1015459999999955 32.1029117757284865 25.5853697481287448
117 2 1.3671819999999959 23.9185349295365661 22.4396275659817626
118 2 4.1015459999999955 27.5436283013440359 24.7465051662228781
119 2 1.3671819999999970 19.3592514551521226 21.6007629840759101
120 2 4.1015459999999964 22.9843448269595925 23.9076405843170257
121 2 1.3671819999999979 14.7999679807676756 20.7618984021700435
122 2 4.1015459999999955 18.4250613525751383 23.0687760024111590
123 2 1.3671819999999990 10.2406845063832286 19.9230338202641875
124 2 4.1015459999999972 13.8657778781906948 22.2299114205053030
125 2 1.3671819999999910 49.4058555706892832 30.4088410940874390
126 2 1.3671819999999919 44.8465720963048398 29.5699765121815794
127 2 4.1015459999999901 48.4716654681123060 31.8768541124226950
128 2 1.3671819999999926 40.2872886219203963 28.7311119302757163
129 2 4.1015459999999919 43.9123819937278626 31.0379895305168390
130 2 1.3671819999999937 35.7280051475359457 27.8922473483698568
131 2 4.1015459999999919 39.3530985193434120 30.1991249486109723
132 2 1.3671819999999943 31.1687216731515022 27.0533827664639972
133 2 4.1015459999999937 34.7938150449589685 29.3602603667051127
134 2 1.3671819999999957 26.6094381987670552 26.2145181845581412
135 2 4.1015459999999955 30.2345315705745215 28.5213957847992532
136 2 1.3671819999999966 22.0501547243826117 25.3756536026522745
137 2 4.1015459999999964 25.6752480961900709 27.6825312028933901
138 2 1.3671819999999975 17.4908712499981611 24.5367890207464185
139 2 4.1015459999999964 21.1159646218056238 26.8436666209875305
140 2 1.3671819999999988 12.9315877756137141 23.6979244388405554
141 2 4.1015459999999972 16.5566811474211839 26.0048020390816710
142 2 4.1015459999999972 11.9973976730367351 25.1659374571758150
143 2 1.3671819999999935 38.4189084167664348 31.6671379669462354
144 2 1.3671819999999941 33.8596249423819913 30.8282733850403687
145 2 1.3671819999999950 29.3003414679975407 29.9894088031345127
146 2 1.3671819999999966 24.7410579936130937 29.1505442212286461
147 2 4.1015459999999955 28.3661513654205599 31.4574218214697652
148 2 1.3671819999999972 20.1817745192286502 28.3116796393227936
149 2 4.1015459999999964 23.8068678910361164 30.6185572395639092
150 2 1.3671819999999986 15.6224910448441996 27.4728150574169270
151 2 4.1015459999999964 19.2475844166516659 29.7796926576580425
152 2 4.1015459999999972 14.6883009422672188 28.9408280757521865
153 2 1.3671819999999970 22.8726777884591357 32.0865702578991616
154 2 1.3671819999999983 18.3133943140746851 31.2477056759933056
155 2 -0.0000000000000080 34.7175546284220644 1.4680130183352562
156 2 -0.0000000000000070 30.1582711540376245 0.6291484364293949
157 2 2.7343639999999914 33.7833645258450872 2.9360260366705111
158 2 2.7343639999999931 29.2240810514606402 2.0971614547646507
159 2 2.7343639999999940 24.6647975770761931 1.2582968728587909
160 2 2.7343639999999949 20.1055141026917461 0.4194322909529303
161 2 -0.0000000000000084 37.4084578976525606 5.2429036369116275
162 2 -0.0000000000000074 32.8491744232681100 4.4040390550057671
163 2 2.7343639999999905 36.4742677950755834 6.7109166552468817
164 2 -0.0000000000000064 28.2898909488836559 3.5651744730999062
165 2 2.7343639999999931 31.9149843206911257 5.8720520733410222
166 2 -0.0000000000000053 23.7306074744992124 2.7263098911940471
167 2 2.7343639999999931 27.3557008463066857 5.0331874914351618
168 2 -0.0000000000000043 19.1713240001147653 1.8874453092881858
169 2 2.7343639999999945 22.7964173719222316 4.1943229095293013
170 2 -0.0000000000000033 14.6120405257303201 1.0485807273823258
171 2 2.7343639999999949 18.2371338975377917 3.3554583276234413
172 2 -0.0000000000000023 10.0527570513458695 0.2097161454764647
173 2 2.7343639999999962 13.6778504231533411 2.5165937457175809
174 2 2.7343639999999976 9.1185669487688958 1.6777291638117207
175 2 2.7343639999999985 4.5592834743844470 0.8388645819058603
176 2 2.7343639999999994 0.0000000000000000 0.0000000000000000
177 2 -0.0000000000000077 35.5400776924985990 8.1789296735821360
178 2 2.7343639999999905 39.1651710643060582 10.4858072738232551
179 2 -0.0000000000000067 30.9807942181141485 7.3400650916762791
180 2 2.7343639999999931 34.6058875899216147 9.6469426919173973
181 2 -0.0000000000000057 26.4215107437297050 6.5012005097704195
182 2 2.7343639999999936 30.0466041155371748 8.8080781100115360
183 2 -0.0000000000000047 21.8622272693452580 5.6623359278645582
184 2 2.7343639999999945 25.4873206411527207 7.9692135281056737
185 2 -0.0000000000000037 17.3029437949608074 4.8234713459586986
186 2 2.7343639999999949 20.9280371667682701 7.1303489461998133
187 2 -0.0000000000000027 12.7436603205763603 3.9846067640528364
188 2 2.7343639999999962 16.3687536923838231 6.2914843642939537
189 2 -0.0000000000000017 8.1843768461919133 3.1457421821469773
190 2 2.7343639999999980 11.8094702179993778 5.4526197823880933
191 2 -0.0000000000000007 3.6250933718074672 2.3068776002411164
192 2 2.7343639999999985 7.2501867436149334 4.6137552004822329
193 2 2.7343639999999994 2.6909032692304860 3.7748906185763715
194 2 -0.0000000000000080 38.2309809617290810 11.9538202921585128
195 2 2.7343639999999900 41.8560743335365473 14.2606978923996266
196 2 -0.0000000000000070 33.6716974873446375 11.1149557102526515
197 2 2.7343639999999914 37.2967908591521038 13.4218333104937670
198 2 -0.0000000000000060 29.1124140129601834 10.2760911283467919
199 2 2.7343639999999931 32.7375073847676532 12.5829687285879075
200 2 -0.0000000000000050 24.5531305385757470 9.4372265464409306
201 2 2.7343639999999940 28.1782239103832062 11.7441041466820479
202 2 -0.0000000000000040 19.9938470641912929 8.5983619645350711
203 2 2.7343639999999945 23.6189404359987556 10.9052395647761866
204 2 -0.0000000000000030 15.4345635898068458 7.7594973826292080
205 2 2.7343639999999958 19.0596569616143157 10.0663749828703253
206 2 -0.0000000000000020 10.8752801154224006 6.9206328007233484
207 2 2.7343639999999962 14.5003734872298669 9.2275104009644657
208 2 -0.0000000000000010 6.3159966410379527 6.0817682188174871
209 2 2.7343639999999985 9.9410900128454198 8.3886458190586062
210 2 2.7343639999999985 5.3818065384609719 7.5497812371527431
211 2 -0.0000000000000083 40.9218842309595701 15.7287109107348808
212 2 -0.0000000000000073 36.3626007565751195 14.8898463288290213
213 2 2.7343639999999914 39.9876941283825857 17.1967239290701421
214 2 -0.0000000000000063 31.8033172821906724 14.0509817469231617
215 2 2.7343639999999931 35.4284106539981494 16.3578593471642790
216 2 -0.0000000000000053 27.2440338078062254 13.2121171650173004
217 2 2.7343639999999945 30.8691271796136917 15.5189947652584159
218 2 -0.0000000000000043 22.6847503334217784 12.3732525831114408
219 2 2.7343639999999945 26.3098437052292446 14.6801301833525564
220 2 -0.0000000000000033 18.1254668590373278 11.5343880012055813
221 2 2.7343639999999958 21.7505602308448012 13.8412656014466968
222 2 -0.0000000000000023 13.5661833846528861 10.6955234192997217
223 2 2.7343639999999962 17.1912767564603506 13.0024010195408355
224 2 -0.0000000000000013 9.0068999102684391 9.8566588373938604
225 2 2.7343639999999985 12.6319932820759053 12.1635364376349742
226 2 -0.0000000000000005 4.4476164358839929 9.0177942554880008
227 2 2.7343639999999985 8.0727098076914583 11.3246718557291146
228 2 -0.0000000000000087 43.6127875001900520 19.5036015293112577
229 2 -0.0000000000000077 39.0535040258056085 18.6647369474053910
230 2 2.7343639999999905 42.6785973976130677 20.9716145476465066
231 2 -0.0000000000000066 34.4942205514211651 17.8258723654995350
232 2 2.7343639999999922 38.1193139232286313 20.1327499657406506
233 2 -0.0000000000000056 29.9349370770367145 16.9870077835936684
234 2 2.7343639999999936 33.5600304488441807 19.2938853838347875
235 2 -0.0000000000000046 25.3756536026522710 16.1481432016878159
236 2 2.7343639999999940 29.0007469744597337 18.4550208019289315
237 2 -0.0000000000000036 20.8163701282678204 15.3092786197819510
238 2 2.7343639999999949 24.4414635000752831 17.6161562200230648
239 2 -0.0000000000000026 16.2570866538833734 14.4704140378760915
240 2 2.7343639999999958 19.8821800256908396 16.7772916381172124
241 2 -0.0000000000000016 11.6978031794989246 13.6315494559702302
242 2 2.7343639999999980 15.3228965513063926 15.9384270562113475
243 2 -0.0000000000000008 7.1385197051144784 12.7926848740643706
244 2 2.7343639999999985 10.7636130769219438 15.0995624743054861
245 2 -0.0000000000000090 46.3036907694205340 23.2784921478876221
246 2 -0.0000000000000080 41.7444072950360905 22.4396275659817661
247 2 2.7343639999999900 45.3695006668435568 24.7465051662228817
248 2 -0.0000000000000070 37.1851238206516399 21.6007629840759030
249 2 2.7343639999999918 40.8102171924591062 23.9076405843170186
250 2 -0.0000000000000060 32.6258403462672035 20.7618984021700470
251 2 2.7343639999999931 36.2509337180746556 23.0687760024111626
252 2 -0.0000000000000050 28.0665568718827600 19.9230338202641839
253 2 2.7343639999999940 31.6916502436902192 22.2299114205052994
254 2 -0.0000000000000040 23.5072733974983059 19.0841692383583279
255 2 2.7343639999999949 27.1323667693057722 21.3910468385994434
256 2 -0.0000000000000030 18.9479899231138553 18.2453046564524612
257 2 2.7343639999999958 22.5730832949213287 20.5521822566935768
258 2 -0.0000000000000020 14.3887064487294118 17.4064400745466052
259 2 2.7343639999999980 18.0137998205368746 19.7133176747877208
260 2 -0.0000000000000011 9.8294229743449630 16.5675754926407386
261 2 2.7343639999999985 13.4545163461524329 18.8744530928818541
262 2 2.7343639999999994 8.8952328717679858 18.0355885109760017
263 2 -0.0000000000000083 44.4353105642665867 26.2145181845581412
264 2 2.7343639999999896 48.0604039360740458 28.5213957847992567
265 2 -0.0000000000000073 39.8760270898821290 25.3756536026522781
266 2 2.7343639999999900 43.5011204616896023 27.6825312028933936
267 2 -0.0000000000000063 35.3167436154976855 24.5367890207464150
268 2 2.7343639999999927 38.9418369873051518 26.8436666209875376
269 2 -0.0000000000000053 30.7574601411132384 23.6979244388405554
270 2 2.7343639999999931 34.3825535129207012 26.0048020390816710
271 2 -0.0000000000000043 26.1981766667287914 22.8590598569346923
272 2 2.7343639999999945 29.8232700385362506 25.1659374571758150
273 2 -0.0000000000000033 21.6388931923443408 22.0201952750288363
274 2 2.7343639999999945 25.2639865641518107 24.3270728752699483
275 2 -0.0000000000000023 17.0796097179598974 21.1813306931229732
276 2 2.7343639999999967 20.7047030897673636 23.4882082933640959
277 2 -0.0000000000000014 12.5203262435754503 20.3424661112171172
278 2 2.7343639999999976 16.1454196153829166 22.6493437114582292
279 2 2.7343639999999985 11.5861361409984696 21.8104791295523661
280 2 -0.0000000000000086 47.1262138334970615 29.9894088031345092
281 2 -0.0000000000000076 42.5669303591126251 29.1505442212286532
282 2 2.7343639999999900 46.1920237309200843 31.4574218214697687
283 2 -0.0000000000000066 38.0076468847281674 28.3116796393227865
284 2 2.7343639999999927 41.6327402565356408 30.6185572395639021
285 2 -0.0000000000000056 33.4483634103437311 27.4728150574169305
286 2 2.7343639999999931 37.0734567821511973 29.7796926576580461
287 2 -0.0000000000000046 28.8890799359592769 26.6339504755110639
288 2 2.7343639999999945 32.5141733077667467 28.9408280757521830
289 2 -0.0000000000000036 24.3297964615748299 25.7950858936052114
290 2 2.7343639999999945 27.9548898333822962 28.1019634938463270
291 2 -0.0000000000000026 19.7705129871903864 24.9562213116993448
292 2 2.7343639999999958 23.3956063589978491 27.2630989119404603
293 2 -0.0000000000000018 15.2112295128059394 24.1173567297934888
294 2 2.7343639999999976 18.8363228846134021 26.4242343300346079
295 2 2.7343639999999985 14.2770394102289568 25.5853697481287412
296 2 -0.0000000000000069 40.6985501539586565 32.0865702578991545
297 2 -0.0000000000000059 36.1392666795742201 31.2477056759932985
298 2 -0.0000000000000049 31.5799832051897695 30.4088410940874425
299 2 -0.0000000000000039 27.0206997308053189 29.5699765121815759
300 2 2.7343639999999945 30.6457931026127852 31.8768541124226950
301 2 -0.0000000000000029 22.4614162564208755 28.7311119302757234
302 2 2.7343639999999954 26.0865096282283382 31.0379895305168354
303 2 -0.0000000000000021 17.9021327820364249 27.8922473483698568
304 2 2.7343639999999967 21.5272261538438876 30.1991249486109723
305 2 -0.0000000000000009 13.3428493076519779 27.0533827664640008
306 2 2.7343639999999980 16.9679426794594441 29.3602603667051163
307 2 -0.0000000000000024 20.5930360512669104 31.6671379669462283
308 2 -0.0000000000000013 16.0337525768824634 30.8282733850403687
309 2 25.7180833461999931 1.9934488142232389 1.5361184352800235
310 2 25.7180833461999931 3.2517456870820283 4.2274756355613254
311 2 25.7180833461999931 4.5100425599408176 6.9188328358426272
312 2 25.7180833461999931 5.7683394327996078 9.6101900361239299
313 2 25.7180833461999931 7.0266363056583980 12.3015472364052325
314 2 25.7180833461999931 8.2849331785171874 14.9929044366865334
315 2 25.7180833461999931 9.5432300513759749 17.6842616369678325
316 2 25.7180833461999931 10.8015269242347660 20.3756188372491387
317 2 25.7180833461999931 12.0598237970935553 23.0669760375304413
318 2 25.7180833461999931 13.3181206699523447 25.7583332378117404
319 2 25.7180833461999931 14.5764175428111358 28.4496904380930431
320 2 25.7180833461999931 15.8347144156699216 31.1410476383743422
321 2 25.7180833461999931 4.9644275418064954 1.5361184352800235
322 2 25.7180833461999931 6.2227244146652838 4.2274756355613263
323 2 25.7180833461999931 7.4810212875240731 6.9188328358426281
324 2 25.7180833461999931 8.7393181603828634 9.6101900361239316
325 2 25.7180833461999931 9.9976150332416545 12.3015472364052307
326 2 25.7180833461999931 11.2559119061004402 14.9929044366865316
327 2 25.7180833461999931 12.5142087789592313 17.6842616369678325
328 2 25.7180833461999931 13.7725056518180207 20.3756188372491387
329 2 25.7180833461999931 15.0308025246768118 23.0669760375304413
330 2 25.7180833461999931 16.2890993975355975 25.7583332378117369
331 2 25.7180833461999931 17.5473962703943904 28.4496904380930467
332 2 25.7180833461999931 18.8056931432531762 31.1410476383743422
333 2 25.7180833461999931 7.9354062693897491 1.5361184352800230
334 2 25.7180833461999931 9.1937031422485394 4.2274756355613254
335 2 25.7180833461999931 10.4520000151073287 6.9188328358426272
336 2 25.7180833461999931 11.7102968879661180 9.6101900361239316
337 2 25.7180833461999931 12.9685937608249073 12.3015472364052307
338 2 25.7180833461999931 14.2268906336836967 14.9929044366865334
339 2 25.7180833461999931 15.4851875065424860 17.6842616369678325
340 2 25.7180833461999931 16.7434843794012771 20.3756188372491387
341 2 25.7180833461999931 18.0017812522600629 23.0669760375304378
342 2 25.7180833461999931 19.2600781251188522 25.7583332378117369
343 2 25.7180833461999931 20.5183749979776451 28.4496904380930467
344 2 25.7180833461999931 21.7766718708364309 31.1410476383743422
345 2 25.7180833461999931 10.9063849969730029 1.5361184352800228
346 2 25.7180833461999931 12.1646818698317922 4.2274756355613246
347 2 25.7180833461999931 13.4229787426905833 6.9188328358426281
348 2 25.7180833461999931 14.6812756155493727 9.6101900361239299
349 2 25.7180833461999931 15.9395724884081638 12.3015472364052325
350 2 25.7180833461999931 17.1978693612669495 14.9929044366865334
351 2 25.7180833461999931 18.4561662341257424 17.6842616369678360
352 2 25.7180833461999931 19.7144631069845317 20.3756188372491387
353 2 25.7180833461999931 20.9727599798433211 23.0669760375304342
354 2 25.7180833461999931 22.2310568527021104 25.7583332378117440
355 2 25.7180833461999931 23.4893537255608997 28.4496904380930467
356 2 25.7180833461999931 24.7476505984196855 31.1410476383743422
357 2 25.7180833461999931 13.8773637245562593 1.5361184352800228
358 2 25.7180833461999931 15.1356605974150487 4.2274756355613246
359 2 25.7180833461999931 16.3939574702738362 6.9188328358426272
360 2 25.7180833461999931 17.6522543431326255 9.6101900361239281
361 2 25.7180833461999931 18.9105512159914220 12.3015472364052325
362 2 25.7180833461999931 20.1688480888502113 14.9929044366865352
363 2 25.7180833461999931 21.4271449617089935 17.6842616369678360
364 2 25.7180833461999931 22.6854418345677864 20.3756188372491387
365 2 25.7180833461999931 23.9437387074265757 23.0669760375304342
366 2 25.7180833461999931 25.2020355802853686 25.7583332378117440
367 2 25.7180833461999931 26.4603324531441579 28.4496904380930431
368 2 25.7180833461999931 27.7186293260029437 31.1410476383743422
369 2 25.7180833461999931 16.8483424521395158 1.5361184352800232
370 2 25.7180833461999931 18.1066393249983051 4.2274756355613246
371 2 25.7180833461999931 19.3649361978570980 6.9188328358426281
372 2 25.7180833461999931 20.6232330707158837 9.6101900361239281
373 2 25.7180833461999931 21.8815299435746766 12.3015472364052307
374 2 25.7180833461999931 23.1398268164334624 14.9929044366865352
375 2 25.7180833461999931 24.3981236892922482 17.6842616369678360
376 2 25.7180833461999931 25.6564205621510375 20.3756188372491316
377 2 25.7180833461999931 26.9147174350098339 23.0669760375304378
378 2 25.7180833461999931 28.1730143078686197 25.7583332378117440
379 2 25.7180833461999931 29.4313111807274090 28.4496904380930431
380 2 25.7180833461999931 30.6896080535861984 31.1410476383743422
381 2 25.7180833461999931 19.8193211797227704 1.5361184352800228
382 2 25.7180833461999931 21.0776180525815597 4.2274756355613246
383 2 25.7180833461999931 22.3359149254403420 6.9188328358426263
384 2 25.7180833461999931 23.5942117982991313 9.6101900361239299
385 2 25.7180833461999931 24.8525086711579242 12.3015472364052307
386 2 25.7180833461999931 26.1108055440167135 14.9929044366865334
387 2 25.7180833461999931 27.3691024168754993 17.6842616369678360
388 2 25.7180833461999931 28.6273992897342922 20.3756188372491316
389 2 25.7180833461999931 29.8856961625930850 23.0669760375304378
390 2 25.7180833461999931 31.1439930354518744 25.7583332378117440
391 2 25.7180833461999931 32.4022899083106708 28.4496904380930431
392 2 25.7180833461999931 33.6605867811694495 31.1410476383743422
393 2 25.7180833461999931 22.7902999073060251 1.5361184352800226
394 2 25.7180833461999931 24.0485967801648144 4.2274756355613246
395 2 25.7180833461999931 25.3068936530236037 6.9188328358426272
396 2 25.7180833461999931 26.5651905258823895 9.6101900361239299
397 2 25.7180833461999931 27.8234873987411788 12.3015472364052325
398 2 25.7180833461999931 29.0817842715999682 14.9929044366865316
399 2 25.7180833461999931 30.3400811444587610 17.6842616369678325
400 2 25.7180833461999931 31.5983780173175504 20.3756188372491316
401 2 25.7180833461999931 32.8566748901763361 23.0669760375304413
402 2 25.7180833461999931 34.1149717630351290 25.7583332378117404
403 2 25.7180833461999931 35.3732686358939148 28.4496904380930395
404 2 25.7180833461999931 36.6315655087527148 31.1410476383743458
405 2 25.7180833461999931 25.7612786348892797 1.5361184352800226
406 2 25.7180833461999931 27.0195755077480726 4.2274756355613246
407 2 25.7180833461999931 28.2778723806068619 6.9188328358426272
408 2 25.7180833461999931 29.5361692534656513 9.6101900361239281
409 2 25.7180833461999931 30.7944661263244370 12.3015472364052325
410 2 25.7180833461999931 32.0527629991832228 14.9929044366865316
411 2 25.7180833461999931 33.3110598720420086 17.6842616369678325
412 2 25.7180833461999931 34.5693567449008015 20.3756188372491351
413 2 25.7180833461999931 35.8276536177595943 23.0669760375304413
414 2 25.7180833461999931 37.0859504906183943 25.7583332378117404
415 2 25.7180833461999931 38.3442473634771730 28.4496904380930395
416 2 25.7180833461999931 39.6025442363359730 31.1410476383743458
417 2 25.7180833461999931 28.7322573624725344 1.5361184352800223
418 2 25.7180833461999931 29.9905542353313272 4.2274756355613246
419 2 25.7180833461999931 31.2488511081901130 6.9188328358426263
420 2 25.7180833461999931 32.5071479810489024 9.6101900361239281
421 2 25.7180833461999931 33.7654448539076952 12.3015472364052290
422 2 25.7180833461999931 35.0237417267664810 14.9929044366865352
423 2 25.7180833461999931 36.2820385996252739 17.6842616369678289
424 2 25.7180833461999931 37.5403354724840668 20.3756188372491351
425 2 25.7180833461999931 38.7986323453428525 23.0669760375304413
426 2 25.7180833461999931 40.0569292182016454 25.7583332378117369
427 2 25.7180833461999931 41.3152260910604312 28.4496904380930395
428 2 25.7180833461999931 42.5735229639192170 31.1410476383743422
429 2 25.7180833461999931 31.7032360900557926 1.5361184352800221
430 2 25.7180833461999931 32.9615329629145890 4.2274756355613237
431 2 25.7180833461999931 34.2198298357733748 6.9188328358426272
432 2 25.7180833461999931 35.4781267086321677 9.6101900361239299
433 2 25.7180833461999931 36.7364235814909534 12.3015472364052290
434 2 25.7180833461999931 37.9947204543497463 14.9929044366865334
435 2 25.7180833461999931 39.2530173272085321 17.6842616369678325
436 2 25.7180833461999931 40.5113142000673179 20.3756188372491387
437 2 25.7180833461999931 41.7696110729261036 23.0669760375304413
438 2 25.7180833461999931 43.0279079457848965 25.7583332378117369
439 2 25.7180833461999931 44.2862048186436823 28.4496904380930431
440 2 25.7180833461999931 45.5445016915024752 31.1410476383743422
441 2 25.7180833461999931 34.6742148176390472 1.5361184352800219
442 2 25.7180833461999931 35.9325116904978401 4.2274756355613246
443 2 25.7180833461999931 37.1908085633566330 6.9188328358426263
444 2 25.7180833461999931 38.4491054362154188 9.6101900361239299
445 2 25.7180833461999931 39.7074023090742045 12.3015472364052307
446 2 25.7180833461999931 40.9656991819329832 14.9929044366865334
447 2 25.7180833461999931 42.2239960547917761 17.6842616369678325
448 2 25.7180833461999931 43.4822929276505690 20.3756188372491387
449 2 25.7180833461999931 44.7405898005093547 23.0669760375304378
450 2 25.7180833461999931 45.9988866733681476 25.7583332378117369
451 2 25.7180833461999931 47.2571835462269334 28.4496904380930431
452 2 25.7180833461999931 48.5154804190857263 31.1410476383743422
453 2 20.6553522186000009 1.8096465867730789 1.8249505069874181
454 2 20.6553522186000009 3.0679434596318682 4.5163077072687203
455 2 20.6553522186000009 4.3262403324906584 7.2076649075500212
456 2 20.6553522186000009 5.5845372053494469 9.8990221078313230
457 2 20.6553522186000009 6.8428340782082371 12.5903793081126256
458 2 20.6553522186000009 8.1011309510670273 15.2817365083939283