#LAMMPS input file of atoms generated by interface_master. The elements are: 1 C 2 Si 
 282 atoms 
 
2 atom types 
 
0.00000000 34.78121475 xlo xhi 
0.00000000 10.23105326 ylo yhi 
0.00000000 8.86035203 zlo zhi 

0.00000000 0.00000000 -5.11552663 xy xz yz 

Atoms 
 
1 2 2.3680286871936307 -1.4615790369612471 7.5945874538834186
2 2 2.3680286871936342 2.1923685554418753 6.3288228782361822
3 2 5.5254002701184763 0.7307895184806265 8.0165089790991626
4 2 2.3680286871936351 5.8463161478449930 5.0630583025889457
5 2 5.5254002701184799 4.3847371108837470 6.7507444034519271
6 2 8.6827718530433202 2.9231580739224983 8.4384305043149084
7 2 2.3680286871936316 -0.7307895184806235 3.7972937269417084
8 2 5.5254002701184755 -2.1923685554418730 5.4849798278046906
9 2 8.6827718530433184 -3.6539475924031208 7.1726659286676719
10 2 2.3680286871936342 2.9231580739224983 2.5315291512944729
11 2 5.5254002701184772 1.4615790369612491 4.2192152521574542
12 2 8.6827718530433202 -0.0000000000000002 5.9069013530204355
13 2 2.3680286871936351 6.5771056663256191 1.2657645756472360
14 2 5.5254002701184781 5.1155266293643686 2.9534506765102173
15 2 8.6827718530433220 3.6539475924031226 4.6411367773731991
16 2 5.5254002701184799 8.7694742217674904 1.6876861008629815
17 2 8.6827718530433220 7.3078951848062434 3.3753722017259622
18 2 2.3680286871936325 5.1155266293643722 8.8603520295306577
19 2 5.5254002701184772 2.1923685554418730 0.4219215252157452
20 2 8.6827718530433202 0.7307895184806241 2.1096076260787266
21 2 8.6827718530433220 4.3847371108837443 0.8438430504314902
22 2 1.5786857914624213 2.9231580739224983 8.4384305043149084
23 2 1.5786857914624197 -3.6539475924031208 7.1726659286676737
24 2 1.5786857914624211 0.0000000000000006 5.9069013530204373
25 2 4.7360573743872632 -1.4615790369612469 7.5945874538834168
26 2 1.5786857914624222 3.6539475924031222 4.6411367773732009
27 2 4.7360573743872632 2.1923685554418735 6.3288228782361804
28 2 7.8934289573121097 0.7307895184806265 8.0165089790991626
29 2 1.5786857914624246 7.3078951848062434 3.3753722017259631
30 2 4.7360573743872685 5.8463161478449965 5.0630583025889457
31 2 7.8934289573121115 4.3847371108837478 6.7507444034519253
32 2 1.5786857914624222 0.7307895184806243 2.1096076260787271
33 2 4.7360573743872632 -0.7307895184806245 3.7972937269417089
34 2 7.8934289573121070 -2.1923685554418726 5.4849798278046906
35 2 1.5786857914624228 4.3847371108837452 0.8438430504314908
36 2 4.7360573743872640 2.9231580739224965 2.5315291512944724
37 2 7.8934289573121070 1.4615790369612489 4.2192152521574542
38 2 4.7360573743872667 6.5771056663256191 1.2657645756472362
39 2 7.8934289573121097 5.1155266293643695 2.9534506765102178
40 2 7.8934289573121106 8.7694742217674904 1.6876861008629809
41 2 4.7360573743872649 5.1155266293643722 8.8603520295306577
42 2 7.8934289573121097 2.1923685554418717 0.4219215252157449
43 2 14.5318594025745274 7.6732899440465543 1.4767253382551064
44 2 14.5318594025745274 -0.0000000000000003 8.8603520295306559
45 2 14.5318594025745274 5.1155266293643695 2.9534506765102164
46 2 14.5318594025745274 5.1155266293643686 5.9069013530204337
47 2 14.5318594025745291 2.5577633146821839 1.4767253382551078
48 2 14.5318594025745291 2.5577633146821848 4.4301760147653253
49 2 14.5318594025745274 2.5577633146821839 7.3836266912755422
50 2 14.5318594025745327 5.1155266293643704 8.8603520295306559
51 2 14.5318594025745327 -0.0000000000000005 2.9534506765102173
52 2 14.5318594025745291 -0.0000000000000000 5.9069013530204346
53 2 14.5318594025745327 7.6732899440465561 4.4301760147653253
54 2 14.5318594025745327 -2.5577633146821848 7.3836266912755439
55 2 19.5945905301745249 7.6732899440465543 1.4767253382551058
56 2 19.5945905301745249 -0.0000000000000003 8.8603520295306559
57 2 19.5945905301745249 5.1155266293643677 2.9534506765102155
58 2 19.5945905301745249 5.1155266293643669 5.9069013530204337
59 2 19.5945905301745249 2.5577633146821834 1.4767253382551073
60 2 19.5945905301745249 2.5577633146821843 4.4301760147653244
61 2 19.5945905301745249 2.5577633146821830 7.3836266912755422
62 2 19.5945905301745320 5.1155266293643704 8.8603520295306559
63 2 19.5945905301745320 -0.0000000000000016 2.9534506765102169
64 2 19.5945905301745320 -0.0000000000000009 5.9069013530204337
65 2 19.5945905301745320 7.6732899440465561 4.4301760147653244
66 2 19.5945905301745320 -2.5577633146821857 7.3836266912755431
67 2 17.0643638758745304 3.4103510862429123 8.8603520295306541
68 2 17.0643638758745304 5.9681144009250984 1.4767253382551062
69 2 17.0643638758745304 5.9681144009250975 4.4301760147653244
70 2 17.0643638758745340 -1.7051755431214561 8.8603520295306559
71 2 17.0643638758745340 3.4103510862429118 2.9534506765102160
72 2 17.0643638758745304 3.4103510862429145 5.9069013530204328
73 2 17.0643638758745340 0.8525877715607271 1.4767253382551075
74 2 17.0643638758745340 0.8525877715607276 4.4301760147653253
75 2 17.0643638758745304 0.8525877715607277 7.3836266912755413
76 2 17.0643638758745340 8.5258777156072831 2.9534506765102160
77 2 17.0643638758745340 -1.7051755431214575 5.9069013530204328
78 2 17.0643638758745340 5.9681144009250975 7.3836266912755422
79 2 24.6565370756745352 7.6732899440465543 1.4767253382551055
80 2 24.6565370756745352 -0.0000000000000003 8.8603520295306559
81 2 24.6565370756745352 5.1155266293643677 2.9534506765102155
82 2 24.6565370756745352 5.1155266293643686 5.9069013530204337
83 2 24.6565370756745352 2.5577633146821825 1.4767253382551067
84 2 24.6565370756745352 2.5577633146821834 4.4301760147653244
85 2 24.6565370756745352 2.5577633146821830 7.3836266912755422
86 2 24.6565370756745352 5.1155266293643713 8.8603520295306541
87 2 24.6565370756745352 -0.0000000000000018 2.9534506765102160
88 2 24.6565370756745352 -0.0000000000000018 5.9069013530204337
89 2 24.6565370756745352 7.6732899440465543 4.4301760147653244
90 2 24.6565370756745352 -2.5577633146821865 7.3836266912755431
91 2 34.7804301666745346 3.4103510862429109 8.8603520295306524
92 2 34.7804301666745346 5.9681144009250948 1.4767253382551042
93 2 34.7804301666745346 5.9681144009250939 4.4301760147653226
94 2 34.7804301666745346 -1.7051755431214588 8.8603520295306541
95 2 34.7804301666745346 3.4103510862429105 2.9534506765102142
96 2 34.7804301666745346 3.4103510862429109 5.9069013530204320
97 2 34.7804301666745346 0.8525877715607245 1.4767253382551055
98 2 34.7804301666745346 0.8525877715607251 4.4301760147653235
99 2 34.7804301666745346 0.8525877715607251 7.3836266912755404
100 2 34.7804301666745346 8.5258777156072796 2.9534506765102151
101 2 34.7804301666745346 -1.7051755431214599 5.9069013530204320
102 2 34.7804301666745346 5.9681144009250957 7.3836266912755413
103 2 27.1879785667745324 3.4103510862429105 8.8603520295306541
104 2 27.1879785667745324 5.9681144009250948 1.4767253382551055
105 2 27.1879785667745324 5.9681144009250957 4.4301760147653235
106 2 27.1879785667745324 -1.7051755431214579 8.8603520295306541
107 2 27.1879785667745324 3.4103510862429105 2.9534506765102146
108 2 27.1879785667745324 3.4103510862429114 5.9069013530204311
109 2 27.1879785667745324 0.8525877715607254 1.4767253382551067
110 2 27.1879785667745324 0.8525877715607256 4.4301760147653244
111 2 27.1879785667745324 0.8525877715607274 7.3836266912755395
112 2 27.1879785667745324 8.5258777156072814 2.9534506765102155
113 2 27.1879785667745324 -1.7051755431214588 5.9069013530204328
114 2 27.1879785667745324 5.9681144009250975 7.3836266912755413
115 2 32.2479003842745300 1.7051755431214539 8.8603520295306541
116 2 32.2479003842745300 6.8207021724858228 2.9534506765102142
117 2 32.2479003842745300 4.2629388578036380 1.4767253382551060
118 2 32.2479003842745300 4.2629388578036389 4.4301760147653244
119 2 32.2479003842745300 4.2629388578036398 7.3836266912755413
120 2 32.2479003842745300 -3.4103510862429154 8.8603520295306541
121 2 32.2479003842745300 1.7051755431214539 2.9534506765102155
122 2 32.2479003842745300 1.7051755431214550 5.9069013530204320
123 2 32.2479003842745300 9.3784654871680093 1.4767253382551064
124 2 32.2479003842745300 -0.8525877715607315 4.4301760147653253
125 2 32.2479003842745300 -0.8525877715607306 7.3836266912755422
126 2 32.2479003842745300 6.8207021724858246 5.9069013530204328
127 2 29.7199768580745314 7.6732899440465534 1.4767253382551047
128 2 29.7199768580745314 -0.0000000000000021 8.8603520295306541
129 2 29.7199768580745314 5.1155266293643669 2.9534506765102151
130 2 29.7199768580745314 5.1155266293643677 5.9069013530204320
131 2 29.7199768580745314 2.5577633146821821 1.4767253382551062
132 2 29.7199768580745314 2.5577633146821817 4.4301760147653235
133 2 29.7199768580745314 2.5577633146821839 7.3836266912755404
134 2 29.7199768580745349 5.1155266293643695 8.8603520295306541
135 2 29.7199768580745349 -0.0000000000000027 2.9534506765102160
136 2 29.7199768580745349 -0.0000000000000027 5.9069013530204337
137 2 29.7199768580745349 7.6732899440465525 4.4301760147653235
138 2 29.7199768580745349 -2.5577633146821865 7.3836266912755431
139 2 12.0034296943745282 1.7051755431214577 8.8603520295306559
140 2 12.0034296943745282 6.8207021724858263 2.9534506765102164
141 2 12.0034296943745282 4.2629388578036416 1.4767253382551080
142 2 12.0034296943745282 4.2629388578036416 4.4301760147653253
143 2 12.0034296943745282 4.2629388578036433 7.3836266912755422
144 2 12.0034296943745300 1.7051755431214557 -0.0000000000000006
145 2 12.0034296943745282 1.7051755431214568 2.9534506765102173
146 2 12.0034296943745282 1.7051755431214572 5.9069013530204346
147 2 12.0034296943745300 9.3784654871680129 1.4767253382551087
148 2 12.0034296943745300 -0.8525877715607287 4.4301760147653271
149 2 12.0034296943745300 -0.8525877715607281 7.3836266912755448
150 2 12.0034296943745300 6.8207021724858281 5.9069013530204346
151 2 22.1259054757745304 1.7051755431214566 8.8603520295306559
152 2 22.1259054757745304 6.8207021724858263 2.9534506765102155
153 2 22.1259054757745304 4.2629388578036398 1.4767253382551071
154 2 22.1259054757745304 4.2629388578036389 4.4301760147653253
155 2 22.1259054757745304 4.2629388578036398 7.3836266912755422
156 2 22.1259054757745304 -3.4103510862429145 8.8603520295306559
157 2 22.1259054757745304 1.7051755431214548 2.9534506765102160
158 2 22.1259054757745304 1.7051755431214555 5.9069013530204337
159 2 22.1259054757745304 9.3784654871680111 1.4767253382551078
160 2 22.1259054757745304 -0.8525877715607300 4.4301760147653262
161 2 22.1259054757745304 -0.8525877715607298 7.3836266912755439
162 2 22.1259054757745339 6.8207021724858263 5.9069013530204337
163 1 29.0912481958745310 3.4103510862429105 8.8603520295306541
164 1 29.0912481958745310 5.9681144009250948 1.4767253382551051
165 1 29.0912481958745310 5.9681144009250957 4.4301760147653226
166 1 29.0912481958745310 -1.7051755431214579 8.8603520295306541
167 1 29.0912481958745310 3.4103510862429114 2.9534506765102146
168 1 29.0912481958745310 3.4103510862429118 5.9069013530204320
169 1 29.0912481958745310 0.8525877715607253 1.4767253382551060
170 1 29.0912481958745310 0.8525877715607257 4.4301760147653235
171 1 29.0912481958745310 0.8525877715607268 7.3836266912755404
172 1 29.0912481958745310 8.5258777156072814 2.9534506765102151
173 1 29.0912481958745310 -1.7051755431214595 5.9069013530204328
174 1 29.0912481958745310 5.9681144009250975 7.3836266912755413
175 1 11.3748022685745251 3.4103510862429141 8.8603520295306541
176 1 11.3748022685745251 5.9681144009250984 1.4767253382551067
177 1 11.3748022685745251 5.9681144009250993 4.4301760147653244
178 1 11.3748022685745287 -1.7051755431214566 8.8603520295306559
179 1 11.3748022685745287 3.4103510862429136 2.9534506765102164
180 1 11.3748022685745287 3.4103510862429141 5.9069013530204346
181 1 11.3748022685745287 0.8525877715607280 1.4767253382551078
182 1 11.3748022685745287 0.8525877715607283 4.4301760147653253
183 1 11.3748022685745287 0.8525877715607281 7.3836266912755431
184 1 11.3748022685745287 8.5258777156072831 2.9534506765102164
185 1 11.3748022685745287 -1.7051755431214570 5.9069013530204346
186 1 11.3748022685745305 5.9681144009250993 7.3836266912755431
187 1 26.5529732477745313 7.6732899440465534 1.4767253382551049
188 1 26.5529732477745313 -0.0000000000000012 8.8603520295306541
189 1 26.5529732477745313 5.1155266293643669 2.9534506765102146
190 1 26.5529732477745313 5.1155266293643669 5.9069013530204328
191 1 26.5529732477745313 2.5577633146821830 1.4767253382551064
192 1 26.5529732477745313 2.5577633146821834 4.4301760147653244
193 1 26.5529732477745313 2.5577633146821830 7.3836266912755413
194 1 26.5529732477745313 5.1155266293643713 8.8603520295306541
195 1 26.5529732477745313 -0.0000000000000025 2.9534506765102160
196 1 26.5529732477745313 -0.0000000000000023 5.9069013530204337
197 1 26.5529732477745313 7.6732899440465543 4.4301760147653253
198 1 26.5529732477745313 -2.5577633146821870 7.3836266912755431
199 1 16.4302949935745310 7.6732899440465561 1.4767253382551060
200 1 16.4302949935745310 0.0000000000000006 8.8603520295306559
201 1 16.4302949935745310 5.1155266293643695 2.9534506765102160
202 1 16.4302949935745310 5.1155266293643686 5.9069013530204337
203 1 16.4302949935745310 2.5577633146821839 1.4767253382551071
204 1 16.4302949935745310 2.5577633146821848 4.4301760147653253
205 1 16.4302949935745310 2.5577633146821839 7.3836266912755422
206 1 16.4302949935745310 5.1155266293643704 8.8603520295306559
207 1 16.4302949935745310 -0.0000000000000005 2.9534506765102164
208 1 16.4302949935745310 -0.0000000000000000 5.9069013530204337
209 1 16.4302949935745346 7.6732899440465561 4.4301760147653253
210 1 16.4302949935745346 -2.5577633146821852 7.3836266912755431
211 1 13.9009288486745302 1.7051755431214568 8.8603520295306559
212 1 13.9009288486745302 6.8207021724858263 2.9534506765102164
213 1 13.9009288486745319 4.2629388578036398 1.4767253382551078
214 1 13.9009288486745319 4.2629388578036416 4.4301760147653262
215 1 13.9009288486745302 4.2629388578036416 7.3836266912755422
216 1 13.9009288486745319 1.7051755431214557 -0.0000000000000007
217 1 13.9009288486745319 1.7051755431214568 2.9534506765102173
218 1 13.9009288486745319 1.7051755431214566 5.9069013530204355
219 1 13.9009288486745319 9.3784654871680111 1.4767253382551082
220 1 13.9009288486745319 -0.8525877715607290 4.4301760147653271
221 1 13.9009288486745319 -0.8525877715607285 7.3836266912755448
222 1 13.9009288486745319 6.8207021724858281 5.9069013530204346
223 1 24.0293522685745309 1.7051755431214575 8.8603520295306541
224 1 24.0293522685745309 6.8207021724858263 2.9534506765102155
225 1 24.0293522685745309 4.2629388578036389 1.4767253382551067
226 1 24.0293522685745309 4.2629388578036398 4.4301760147653253
227 1 24.0293522685745309 4.2629388578036398 7.3836266912755422
228 1 24.0293522685745309 -3.4103510862429145 8.8603520295306559
229 1 24.0293522685745309 1.7051755431214544 2.9534506765102160
230 1 24.0293522685745309 1.7051755431214548 5.9069013530204346
231 1 24.0293522685745309 9.3784654871680111 1.4767253382551075
232 1 24.0293522685745309 -0.8525877715607302 4.4301760147653262
233 1 24.0293522685745309 -0.8525877715607298 7.3836266912755439
234 1 24.0293522685745309 6.8207021724858263 5.9069013530204346
235 1 21.4911279386745306 7.6732899440465525 1.4767253382551055
236 1 21.4911279386745306 -0.0000000000000012 8.8603520295306559
237 1 21.4911279386745306 5.1155266293643677 2.9534506765102155
238 1 21.4911279386745306 5.1155266293643669 5.9069013530204337
239 1 21.4911279386745306 2.5577633146821825 1.4767253382551069
240 1 21.4911279386745306 2.5577633146821834 4.4301760147653244
241 1 21.4911279386745306 2.5577633146821839 7.3836266912755422
242 1 21.4911279386745342 5.1155266293643704 8.8603520295306559
243 1 21.4911279386745342 -0.0000000000000018 2.9534506765102164
244 1 21.4911279386745342 -0.0000000000000019 5.9069013530204346
245 1 21.4911279386745342 7.6732899440465561 4.4301760147653244
246 1 21.4911279386745342 -2.5577633146821857 7.3836266912755431
247 1 34.1462600479745291 1.7051755431214539 8.8603520295306541
248 1 34.1462600479745291 6.8207021724858228 2.9534506765102146
249 1 34.1462600479745362 4.2629388578036380 1.4767253382551058
250 1 34.1462600479745362 4.2629388578036380 4.4301760147653244
251 1 34.1462600479745362 4.2629388578036398 7.3836266912755413
252 1 34.1462600479745362 -3.4103510862429154 8.8603520295306541
253 1 34.1462600479745362 1.7051755431214530 2.9534506765102155
254 1 34.1462600479745362 1.7051755431214546 5.9069013530204328
255 1 34.1462600479745362 9.3784654871680093 1.4767253382551067
256 1 34.1462600479745362 -0.8525877715607320 4.4301760147653253
257 1 34.1462600479745362 -0.8525877715607311 7.3836266912755422
258 1 34.1462600479745362 6.8207021724858246 5.9069013530204328
259 1 18.9674816503745269 3.4103510862429123 8.8603520295306541
260 1 18.9674816503745269 5.9681144009250957 1.4767253382551060
261 1 18.9674816503745269 5.9681144009250957 4.4301760147653235
262 1 18.9674816503745305 -1.7051755431214566 8.8603520295306559
263 1 18.9674816503745305 3.4103510862429123 2.9534506765102151
264 1 18.9674816503745305 3.4103510862429123 5.9069013530204337
265 1 18.9674816503745305 0.8525877715607267 1.4767253382551071
266 1 18.9674816503745305 0.8525877715607273 4.4301760147653244
267 1 18.9674816503745305 0.8525877715607272 7.3836266912755422
268 1 18.9674816503745305 8.5258777156072831 2.9534506765102160
269 1 18.9674816503745305 -1.7051755431214579 5.9069013530204328
270 1 18.9674816503745305 5.9681144009250975 7.3836266912755422
271 1 31.6176784851745296 7.6732899440465516 1.4767253382551047
272 1 31.6176784851745296 -0.0000000000000012 8.8603520295306541
273 1 31.6176784851745296 5.1155266293643660 2.9534506765102146
274 1 31.6176784851745296 5.1155266293643677 5.9069013530204320
275 1 31.6176784851745332 2.5577633146821821 1.4767253382551058
276 1 31.6176784851745332 2.5577633146821825 4.4301760147653235
277 1 31.6176784851745332 2.5577633146821812 7.3836266912755404
278 1 31.6176784851745332 5.1155266293643695 8.8603520295306541
279 1 31.6176784851745332 -0.0000000000000026 2.9534506765102151
280 1 31.6176784851745332 -0.0000000000000021 5.9069013530204320
281 1 31.6176784851745332 7.6732899440465525 4.4301760147653235
282 1 31.6176784851745332 -2.5577633146821870 7.3836266912755413
