#LAMMPS input file of atoms generated by interface_master. The elements are: 1 C 2 Si 
 6770 atoms 
 
2 atom types 
 
0.00000000 34.86416508 xlo xhi 
0.00000000 22.21407815 ylo yhi 
0.00000000 88.05846000 zlo zhi 

-7.73394931 -29.00230990 -72.36404245 xy xz yz 

Atoms 
 
1 2 -0.7315897992663015 -2.2741685245960275 4.0459292430219884
2 2 -6.5320517791634174 -16.7469770151251502 21.6576212420588838
3 2 -12.3325137590605340 -31.2197855056542686 39.2693132410957659
4 2 -18.1329757389576507 -45.6925939961833976 56.8810052401326729
5 2 -23.9334377188547656 -60.1654024867125159 74.4926972391695585
6 2 -0.4703077280997648 2.8654523409909944 0.7139875134744685
7 2 -6.2707697079968820 -11.6073561495381270 18.3256795125113605
8 2 -12.0712316878939951 -26.0801646400672418 35.9373715115482497
9 2 -17.8716936677911136 -40.5529731305963708 53.5490635105851496
10 2 -23.6721556476882284 -55.0257816211254820 71.1607555096220210
11 2 -2.2470258120322146 -7.1772758636250638 9.2818376751680933
12 2 -8.0474877919293313 -21.6500843541541848 26.8935296742049843
13 2 -13.8479497718264462 -36.1228928446833137 44.5052216732418842
14 2 -19.6484117517235610 -50.5957013352124179 62.1169136722787627
15 2 -25.4488737316206795 -65.0685098257415575 79.7286056713156768
16 2 -1.9857437408656768 -2.0376549980380414 5.9498959456205709
17 2 -7.7862057207627924 -16.5104634885671615 23.5615879446574645
18 2 -13.5866677006599090 -30.9832719790962798 41.1732799436943537
19 2 -19.3871296805570239 -45.4560804696254053 58.7849719427312465
20 2 -25.1875916604541423 -59.9288889601545236 76.3966639417681392
21 2 -1.7244616696991404 3.1019658675489818 2.6179542160730511
22 2 -7.5249236495962561 -11.3708426229801383 20.2296462151099412
23 2 -13.3253856294933755 -25.8436511135092601 37.8413382141468375
24 2 -19.1258476093904939 -40.3164596040383856 55.4530302131837303
25 2 -24.9263095892876052 -54.7892680945674968 73.0647222122206159
26 2 -3.5011797536315892 -6.9407623370670741 11.1858043777666705
27 2 -9.3016417335287063 -21.4135708275961960 28.7974963768035686
28 2 -15.1021037134258211 -35.8863793181253143 46.4091883758404578
29 2 -20.9025656933229413 -50.3591878086544327 64.0208803748773505
30 2 -26.7030276732200491 -64.8319962991835439 81.6325723739142290
31 2 -3.2398976824650529 -1.8011414714800547 7.8538626482191551
32 2 -9.0403596623621691 -16.2739499620091799 25.4655546472560523
33 2 -14.8408216422592840 -30.7467584525382982 43.0772466462929415
34 2 -20.6412836221564042 -45.2195669430674201 60.6889386453298414
35 2 -26.4417456020535191 -59.6923754335965313 78.3006306443667199
36 2 -2.9786156112985149 3.3384793941069679 4.5219209186716327
37 2 -8.7790775911956320 -11.1343290964221548 22.1336129177085255
38 2 -14.5795395710927469 -25.6071375869512714 39.7453049167454111
39 2 -20.3800015509898635 -40.0799460774803933 57.3569969157823039
40 2 -26.1804635308869820 -54.5527545680095258 74.9686889148191966
41 2 -2.7173335401319791 8.4781002596939903 1.1899791891241140
42 2 -8.5177955200290949 -5.9947082308351289 18.8016711881610057
43 2 -14.3182574999262116 -20.4675167213642517 36.4133631871979020
44 2 -20.1187194798233264 -34.9403252118933665 54.0250551862347876
45 2 -25.9191814597204448 -49.4131337024224990 71.6367471852716875
46 2 -5.0166157663975008 -11.8438696760961140 16.4217128099127798
47 2 -10.8170777462946166 -26.3166781666252305 34.0334048089496690
48 2 -16.6175397261917333 -40.7894866571543488 51.6450968079865547
49 2 -22.4180017060888481 -55.2622951476834814 69.2567888070234545
50 2 -28.2184636859859665 -69.7351036382126068 86.8684808060603473
51 2 -4.7553336952309646 -6.7042488105090898 13.0897710803652565
52 2 -10.5557956751280813 -21.1770573010382073 30.7014630794021457
53 2 -16.3562576550251961 -35.6498657915673292 48.3131550784390384
54 2 -22.1567196349223074 -50.1226742820964404 65.9248470774759312
55 2 -27.9571816148194294 -64.5954827726255729 83.5365390765128097
56 2 -4.4940516240644275 -1.5646279449220684 9.7578293508177385
57 2 -10.2945136039615459 -16.0374364354511876 27.3695213498546295
58 2 -16.0949755838586626 -30.5102449259803130 44.9812133488915222
59 2 -21.8954375637557703 -44.9830534165094278 62.5929053479284150
60 2 -27.6958995436528959 -59.4558619070385461 80.2045973469653148
61 2 -4.2327695528978913 3.5749929206649571 6.4258876212702161
62 2 -10.0332315327950070 -10.8978155698641643 24.0375796203071097
63 2 -15.8336935126921237 -25.3706240603932862 41.6492716193439989
64 2 -21.6341554925892439 -39.8434325509224081 59.2609636183808988
65 2 -27.4346174724863516 -54.3162410414515193 76.8726556174177915
66 2 -3.9714874817313537 8.7146137862519790 3.0939458917226967
67 2 -9.7719494616284699 -5.7581947042771446 20.7056378907595864
68 2 -15.5724114415255865 -20.2310031948062665 38.3173298897964898
69 2 -21.3728734214227032 -34.7038116853353884 55.9290218888333825
70 2 -27.1733354013198110 -49.1766201758644996 73.5407138878702540
71 2 -6.0094876368303405 -6.4677352839511046 14.9937377829638390
72 2 -11.8099496167274545 -20.9405437744802256 32.6054297820007335
73 2 -17.6104115966245693 -35.4133522650093369 50.2171217810376120
74 2 -23.4108735765216913 -49.8861607555384694 67.8288137800745261
75 2 -29.2113355564188026 -64.3589692460676019 85.4405057791114046
76 2 -5.7482055656638034 -1.3281144183640829 11.6617960534163210
77 2 -11.5486675455609209 -15.8009229088932077 29.2734880524532173
78 2 -17.3491295254580358 -30.2737313994223207 46.8851800514900958
79 2 -23.1495915053551471 -44.7465398899514426 64.4968720505269886
80 2 -28.9500534852522691 -59.2193483804805680 82.1085640495638955
81 2 -5.4869234944972662 3.8115064472229405 8.3298543238687994
82 2 -11.2873854743943820 -10.6613020433061756 25.9415463229056868
83 2 -17.0878474542914951 -25.1341105338352939 43.5532383219425725
84 2 -22.8883094341886171 -39.6069190243644229 61.1649303209794795
85 2 -28.6887714140857319 -54.0797275148935412 78.7766223200163722
86 2 -5.2256414233307309 8.9511273128099642 4.9979125943212805
87 2 -11.0261034032278449 -5.5216811777191541 22.6096045933581706
88 2 -16.8265653831249651 -19.9944896682482742 40.2212965923950563
89 2 -22.6270273630220764 -34.4672981587773961 57.8329885914319561
90 2 -28.4274893429191948 -48.9401066493065287 75.4446805904688631
91 2 -4.9643593521641920 14.0907481783969857 1.6659708647737592
92 2 -10.7648213320613095 -0.3820603121321359 19.2776628638106509
93 2 -16.5652833119584244 -14.8548688026612563 36.8893548628475472
94 2 -22.3657452918555393 -29.3276772931903764 54.5010468618844399
95 2 -28.1662072717526542 -43.8004857837195019 72.1127388609213398
96 2 -7.2636415784297137 -6.2312217573931159 16.8977044855624179
97 2 -13.0641035583268295 -20.7040302479222369 34.5093964845993142
98 2 -18.8645655382239497 -35.1768387384513659 52.1210884836362141
99 2 -24.6650275181210645 -49.6496472289804771 69.7327804826731068
100 2 -30.4654894980181830 -64.1224557195096168 87.3444724817099853
101 2 -7.0023595072631801 -1.0916008918060978 13.5657627560149070
102 2 -12.8028214871602959 -15.5644093823352190 31.1774547550518015
103 2 -18.6032834670574125 -30.0372178728643426 48.7891467540886907
104 2 -24.4037454469545239 -44.5100263633934503 66.4008387531255835
105 2 -30.2042074268516352 -58.9828348539225757 84.0125307521624620
106 2 -6.7410774360966412 4.0480199737809270 10.2338210264673837
107 2 -12.5415394159937570 -10.4247885167481940 27.8455130255042747
108 2 -18.3420013958908790 -24.8975970072773194 45.4572050245411745
109 2 -24.1424633757879867 -39.3704054978064306 63.0688970235780531
110 2 -29.9429253556851087 -53.8432139883355489 80.6805890226149529
111 2 -6.4797953649301059 9.1876408393679512 6.9018792969198612
112 2 -12.2802573448272216 -5.2851676511611689 24.5135712959567549
113 2 -18.0807193247243383 -19.7579761416902961 42.1252632949936441
114 2 -23.8811813046214496 -34.2307846322194109 59.7369552940305368
115 2 -29.6816432845185680 -48.7035931227485364 77.3486472930674296
116 2 -6.2185132937635679 14.3272617049549726 3.5699375673723437
117 2 -12.0189752736606881 -0.1455467855741507 21.1816295664092387
118 2 -17.8194372535577976 -14.6183552761032693 38.7933215654461279
119 2 -23.6198992334549160 -29.0911637666323912 56.4050135644830206
120 2 -29.4203612133520274 -43.5639722571615096 74.0167055635199063
121 2 -5.9572312225970325 19.4668825705419977 0.2379958378248220
122 2 -11.7576932024941474 4.9940740800128776 17.8496878368617153
123 2 -17.5581551823912605 -9.4787344105162390 35.4613798358986045
124 2 -23.3586171622883825 -23.9515429010453680 53.0730718349355044
125 2 -29.1590791421854902 -38.4243513915744686 70.6847638339723687
126 2 -8.2565134488625525 -0.8550873652481082 15.4697294586134841
127 2 -14.0569754287596744 -15.3278958557772302 33.0814214576503787
128 2 -19.8574374086567857 -29.8007043463063432 50.6931134566872643
129 2 -25.6578993885539042 -44.2735128368354722 68.3048054557241642
130 2 -31.4583613684510119 -58.7463213273645906 85.9164974547610427
131 2 -7.9952313776960162 4.2845335003389140 12.1377877290659661
132 2 -13.7956933575931320 -10.1882749901902034 29.7494797281028589
133 2 -19.5961553374902522 -24.6610834807193307 47.3611717271397552
134 2 -25.3966173173873671 -39.1338919712484525 64.9728637261766409
135 2 -31.1970792972844819 -53.6067004617775780 82.5845557252135478
136 2 -7.7339493065294809 9.4241543659259399 8.8058459995184446
137 2 -13.5344112864265949 -5.0486541246031775 26.4175379985553320
138 2 -19.3348732663237115 -19.5214626151323039 44.0292299975922319
139 2 -25.1353352462208228 -33.9942711056614115 61.6409219966291104
140 2 -30.9357972261179412 -48.4670795961905512 79.2526139956660245
141 2 -7.4726672353629429 14.5637752315129596 5.4739042699709257
142 2 -13.2731292152600595 0.0909667409838370 23.0855962690078158
143 2 -19.0735911951571779 -14.3818417495452859 40.6972882680447157
144 2 -24.8740531750542928 -28.8546502400743989 58.3089802670815942
145 2 -30.6745151549514112 -43.3274587306035173 75.9206722661184870
146 2 -7.2113851641964075 19.7033960970999829 2.1419625404234064
147 2 -13.0118471440935242 5.2305876065708610 19.7536545394602996
148 2 -18.8123091239906408 -9.2422208839582591 37.3653465384971923
149 2 -24.6127711038877557 -23.7150293744873792 54.9770385375340780
150 2 -30.4132330837848777 -38.1878378650165047 72.5887305365709778
151 2 -9.5106673904619310 -0.6185738386901213 17.3736961612120702
152 2 -15.3111293703590459 -15.0913823292192415 34.9853881602489594
153 2 -21.1115913502561625 -29.5641908197483545 52.5970801592858450
154 2 -26.9120533301532774 -44.0369993102774799 70.2087721583227449
155 2 -32.7125153100503923 -58.5098078008066054 87.8204641573596376
156 2 -9.2493853192953903 4.5210470268969010 14.0417544316645468
157 2 -15.0498472991925070 -9.9517614636322165 31.6534464307014360
158 2 -20.8503092790896254 -24.4245699541613419 49.2651384297383288
159 2 -26.6507712589867403 -38.8973784446904673 66.8768304287752215
160 2 -32.4512332388838587 -53.3701869352195786 84.4885224278121001
161 2 -8.9881032481288550 9.6606678924839215 10.7098127021170288
162 2 -14.7885652280259734 -4.8121405980451986 28.3215047011539198
163 2 -20.5890272079230883 -19.2849490885743187 45.9331967001908126
164 2 -26.3894891878202067 -33.7577575791034477 63.5448886992277124
165 2 -32.1899511677173109 -48.2305660696325589 81.1565806982645768
166 2 -8.7268211769623178 14.8002887580709483 7.3778709725695064
167 2 -14.5272831568594363 0.3274802675418277 24.9895629716064001
168 2 -20.3277451367565511 -14.1453282229872936 42.6012549706432893
169 2 -26.1282071166536731 -28.6181367135164173 60.2129469696801891
170 2 -31.9286690965507809 -43.0909452040455321 77.8246389687170819
171 2 -10.5035392608947689 4.7575605534548862 15.9457211342631329
172 2 -16.3040012407918802 -9.7152479370742331 33.5574131333000238
173 2 -22.1044632206889951 -24.1880564276033496 51.1691051323369024
174 2 -27.9049252005861135 -38.6608649181324679 68.7807971313738165
175 2 -33.7053871804832355 -53.1336734086615934 86.3924891304106950
176 2 -10.2422571897282317 9.8971814190419085 12.6137794047156113
177 2 -16.0427191696253466 -4.5756270714872107 30.2254714037525041
178 2 -21.8431811495224615 -19.0484355620163299 47.8371634027893862
179 2 -27.6436431294195764 -33.5212440525454483 65.4488554018262789
180 2 -33.4441051093166877 -47.9940525430745666 83.0605474008631575
181 2 -11.4964111313276085 10.1336949455998937 14.5177461073141973
182 2 -17.2968731112247198 -4.3391135449292273 32.1294381063510883
183 2 -23.0973350911218347 -18.8119220354583447 49.7411301053879811
184 2 -28.8977970710189496 -33.2847305259874631 67.3528221044248738
185 2 -34.6982590509160786 -47.7575390165165814 84.9645141034617524
186 2 1.3064103558326849 0.1182567632789934 0.9519833512992916
187 2 -4.4940516240644310 -14.3545517272501257 18.5636753503361831
188 2 -10.2945136039615459 -28.8273602177792476 36.1753673493730759
189 2 -16.0949755838586626 -43.3001687083083695 53.7870593484099686
190 2 -21.8954375637557810 -57.7729771988374878 71.3987513474468614
191 2 -0.2090256569332272 -4.7848505757500419 6.1878917834453926
192 2 -6.0094876368303440 -19.2576590662791602 23.7995837824822836
193 2 -11.8099496167274598 -33.7304675568082857 41.4112757815191799
194 2 -17.6104115966245729 -48.2032760473374111 59.0229677805560797
195 2 -23.4108735765216913 -62.6760845378665223 76.6346597795929512
196 2 0.0522564142333092 0.3547702898369799 2.8559500538978746
197 2 -5.7482055656638078 -14.1180382006921423 20.4676420529347673
198 2 -11.5486675455609227 -28.5908466912212589 38.0793340519716637
199 2 -17.3491295254580358 -43.0636551817503772 55.6910260510085422
200 2 -23.1495915053551542 -57.5364636722795026 73.3027180500454563
201 2 -1.4631795985326030 -4.5483370491920549 8.0918584860439768
202 2 -7.2636415784297208 -19.0211455397211786 25.7035504850808714
203 2 -13.0641035583268348 -33.4939540302503005 43.3152424841177677
204 2 -18.8645655382239532 -47.9667625207794188 60.9269344831546604
205 2 -24.6650275181210681 -62.4395710113085372 78.5386264821915319
206 2 -1.2018975273660659 0.5912838163949659 4.7599167564964571
207 2 -7.0023595072631792 -13.8815246741341518 22.3716087555333409
208 2 -12.8028214871602994 -28.3543331646632701 39.9833007545702372
209 2 -18.6032834670574161 -42.8271416551923920 57.5949927536071371
210 2 -24.4037454469545274 -57.2999501457215104 75.2066847526440228
211 2 -0.9406154561995297 5.7309046819819889 1.4279750269489371
212 2 -6.7410774360966466 -8.7419038085471303 19.0396670259858318
213 2 -12.5415394159937641 -23.2147122990762540 36.6513590250227210
214 2 -18.3420013958908790 -37.6875207896053794 54.2630510240596209
215 2 -24.1424633757879903 -52.1603292801344836 71.8747430230964994
216 2 -2.9786156112985154 -9.4514443882210912 13.3277669181900791
217 2 -8.7790775911956302 -23.9242528787502131 30.9394589172269718
218 2 -14.5795395710927469 -38.3970613692793279 48.5511509162638575
219 2 -20.3800015509898635 -52.8698698598084533 66.1628429153007573
220 2 -26.1804635308869855 -67.3426783503375788 83.7745349143376501
221 2 -2.7173335401319791 -4.3118235226340715 9.9958251886425629
222 2 -8.5177955200290949 -18.7846320131631934 27.6075171876794556
223 2 -14.3182574999262080 -33.2574405036923011 45.2192091867163342
224 2 -20.1187194798233229 -47.7302489942214336 62.8309011857532340
225 2 -25.9191814597204448 -62.2030574847505449 80.4425931847901268
226 2 -2.4560514689654416 0.8277973429529544 6.6638834590950395
227 2 -8.2565134488625578 -13.6450111475761666 24.2755754581319287
228 2 -14.0569754287596744 -28.1178196381052885 41.8872674571688250
229 2 -19.8574374086567893 -42.5906281286344068 59.4989594562057178
230 2 -25.6578993885539006 -57.0634366191635181 77.1106514552425892
231 2 -2.1947693977989049 5.9674182085399758 3.3319417295475198
232 2 -7.9952313776960207 -8.5053902819891452 20.9436337285844125
233 2 -13.7956933575931355 -22.9781987725182653 38.5553257276212946
234 2 -19.5961553374902522 -37.4510072630473800 56.1670177266581945
235 2 -25.3966173173873742 -51.9238157535765055 73.7787097256950943
236 2 -1.9334873266323680 11.1070390741270000 -0.0000000000000007
237 2 -7.7339493065294835 -3.3657694164021219 17.6116919990368928
238 2 -13.5344112864266002 -17.8385779069312420 35.2233839980737784
239 2 -19.3348732663237115 -32.3113863974603603 52.8350759971106783
240 2 -25.1353352462208299 -46.7841948879894858 70.4467679961475710
241 2 -4.2327695528978904 -9.2149308616631025 15.2317336207886598
242 2 -10.0332315327950106 -23.6877393521922279 32.8434256198255596
243 2 -15.8336935126921237 -38.1605478427213498 50.4551176188624524
244 2 -21.6341554925892403 -52.6333563332504610 68.0668096178993380
245 2 -27.4346174724863552 -67.1061648237795936 85.6785016169362450
246 2 -3.9714874817313537 -4.0753099960760828 11.8997918912411418
247 2 -9.7719494616284681 -18.5481184866052011 29.5114838902780328
248 2 -15.5724114415255848 -33.0209269771343230 47.1231758893149291
249 2 -21.3728734214226996 -47.4937354676634484 64.7348678883518147
250 2 -27.1733354013198181 -61.9665439581925597 82.3465598873887075
251 2 -3.7102054105648179 1.0643108695109389 8.5678501616936238
252 2 -9.5106673904619345 -13.4084976210181832 26.1795421607305165
253 2 -15.3111293703590459 -27.8813061115472998 43.7912341597673986
254 2 -21.1115913502561625 -42.3541146020764145 61.4029261588042914
255 2 -26.9120533301532809 -56.8269230926055542 79.0146181578411984
256 2 -3.4489233393982808 6.2039317350979637 5.2359084321461022
257 2 -9.2493853192953974 -8.2688767554311564 22.8476004311829968
258 2 -15.0498472991925123 -22.7416852459602765 40.4592924302198824
259 2 -20.8503092790896289 -37.2144937364894020 58.0709844292567752
260 2 -26.6507712589867509 -51.6873022270185203 75.6826764282936750
261 2 -3.1876412682317428 11.3435526006849816 1.9039667025985818
262 2 -8.9881032481288585 -3.1292558898441367 19.5156587016354770
263 2 -14.7885652280259769 -17.6020643803732533 37.1273507006723662
264 2 -20.5890272079230954 -32.0748728709023752 54.7390426997092590
265 2 -26.3894891878202067 -46.5476813614314935 72.3507346987461517
266 2 -5.4869234944972671 -8.9784173351051209 17.1357003233872476
267 2 -11.2873854743943820 -23.4512258256342392 34.7473923224241332
268 2 -17.0878474542914951 -37.9240343161633575 52.3590843214610260
269 2 -22.8883094341886135 -52.3968428066924830 69.9707763204979187
270 2 -28.6887714140857248 -66.8696512972215942 87.5824683195347973
271 2 -5.2256414233307300 -3.8387964695180954 13.8037585938397243
272 2 -11.0261034032278467 -18.3116049600472230 31.4154505928766206
273 2 -16.8265653831249615 -32.7844134505763378 49.0271425919135098
274 2 -22.6270273630220800 -47.2572219411054633 66.6388345909504096
275 2 -28.4274893429191984 -61.7300304316345887 84.2505265899873024
276 2 -4.9643593521641920 1.3008243960689281 10.4718168642922045
277 2 -10.7648213320613095 -13.1719840944601891 28.0835088633290901
278 2 -16.5652833119584280 -27.6447925849893181 45.6952008623659935
279 2 -22.3657452918555428 -42.1176010755184365 63.3068928614028721
280 2 -28.1662072717526613 -56.5904095660475548 80.9185848604397648
281 2 -4.7030772809976567 6.4404452616559498 7.1398751347446856
282 2 -10.5035392608947724 -8.0323632288731694 24.7515671337815810
283 2 -16.3040012407918873 -22.5051717194022913 42.3632591328184702
284 2 -22.1044632206890057 -36.9779802099314097 59.9749511318553559
285 2 -27.9049252005861206 -51.4507887004605351 77.5866431308922557
286 2 -4.4417952098311195 11.5800661272429739 3.8079334051971649
287 2 -10.2422571897282371 -2.8927423632861458 21.4196254042340577
288 2 -16.0427191696253537 -17.3655508538152681 39.0313174032709540
289 2 -21.8431811495224650 -31.8383593443443829 56.6430094023078325
290 2 -27.6436431294195799 -46.3111678348735083 74.2547014013447324
291 2 -4.1805131386645833 16.7196869928299989 0.4759916756496446
292 2 -9.9809751185616982 2.2468785023008806 18.0876836746865344
293 2 -15.7814370984588166 -12.2259299882282413 35.6993756737234236
294 2 -21.5818990783559315 -26.6987384787573632 53.3110676727603163
295 2 -27.3823610582530499 -41.1715469692864815 70.9227596717972091
296 2 -6.4797953649301059 -3.6022829429601093 15.7077252964383103
297 2 -12.2802573448272216 -18.0750914334892308 33.3194172954752048
298 2 -18.0807193247243383 -32.5478999240183597 50.9311092945121047
299 2 -23.8811813046214567 -47.0207084145474710 68.5428012935489761
300 2 -29.6816432845185680 -61.4935169050765964 86.1544932925858831
301 2 -6.2185132937635688 1.5373379226269170 12.3757835668907870
302 2 -12.0189752736606863 -12.9354705679022022 29.9874755659276779
303 2 -17.8194372535578012 -27.4082790584313258 47.5991675649645671
304 2 -23.6198992334549196 -41.8810875489604442 65.2108595640014670
305 2 -29.4203612133520274 -56.3538960394895625 82.8225515630383597
306 2 -5.9572312225970299 6.6769587882139358 9.0438418373432654
307 2 -11.7576932024941492 -7.7958497023151878 26.6555338363801617
308 2 -17.5581551823912640 -22.2686581928443097 44.2672258354170509
309 2 -23.3586171622883825 -36.7414666833734316 61.8789178344539508
310 2 -29.1590791421854938 -51.2142751739025428 79.4906098334908222
311 2 -5.6959491514304936 11.8165796538009555 5.7119001077957492
312 2 -11.4964111313276085 -2.6562288367281659 23.3235921068326419
313 2 -17.2968731112247269 -17.1290373272572829 40.9352841058695276
314 2 -23.0973350911218454 -31.6018458177864154 58.5469761049064346
315 2 -28.8977970710189567 -46.0746543083155231 76.1586681039433273
316 2 -5.4346670802639583 16.9562005193879806 2.3799583782482281
317 2 -11.2351290601610732 2.4833920288588622 19.9916503772851186
318 2 -17.0355910400581898 -11.9894164616702579 37.6033423763220114
319 2 -22.8360530199553082 -26.4622249521993851 55.2150343753589112
320 2 -28.6365149998524231 -40.9350334427285034 72.8267263743958040
321 2 -7.4726672353629437 1.7738514491848967 14.2797502694893748
322 2 -13.2731292152600595 -12.6989570413442276 31.8914422685262657
323 2 -19.0735911951571779 -27.1717655318733442 49.5031342675631620
324 2 -24.8740531750542928 -41.6445740224024590 67.1148262666000335
325 2 -30.6745151549514077 -56.1173825129315844 84.7265182656369404
326 2 -7.2113851641964075 6.9134723147719219 10.9478085399418532
327 2 -13.0118471440935242 -7.5593361757571991 28.5595005389787460
328 2 -18.8123091239906408 -22.0321446662863245 46.1711925380156458
329 2 -24.6127711038877521 -36.5049531568154393 63.7828845370525244
330 2 -30.4132330837848777 -50.9777616473445576 81.3945765360894171
331 2 -6.9501030930298677 12.0530931803589478 7.6158668103943299
332 2 -12.7505650729269853 -2.4197153101701749 25.2275588094312262
333 2 -18.5510270528241037 -16.8925238006992977 42.8392508084681154
334 2 -24.3514890327212150 -31.3653322912284160 60.4509428075050081
335 2 -30.1519510126183334 -45.8381407817575308 78.0626348065419080
336 2 -6.6888210218633350 17.1927140459459729 4.2839250808468119
337 2 -12.4892830017604499 2.7199055554168474 21.8956170798837029
338 2 -18.2897449816575666 -11.7529029351122709 39.5073090789205992
339 2 -24.0902069615546814 -26.2257114256413999 57.1190010779574919
340 2 -29.8906689414517963 -40.6985199161705111 74.7306930769943847
341 2 -8.7268211769623178 2.0103649757428896 16.1837169720879537
342 2 -14.5272831568594345 -12.4624435147862265 33.7954089711248358
343 2 -20.3277451367565547 -26.9352520053153555 51.4071009701617427
344 2 -26.1282071166536696 -41.4080604958444738 69.0187929691986284
345 2 -31.9286690965507773 -55.8808689863735992 86.6304849682355353
346 2 -8.4655391057957825 7.1499858413299142 12.8517752425404321
347 2 -14.2660010856928992 -7.3228226491992094 30.4634672415773231
348 2 -20.0664630655900140 -21.7956311397283287 48.0751592406142194
349 2 -25.8669250454871289 -36.2684396302574541 65.6868512396511193
350 2 -31.6673870253842473 -50.7412481207865724 83.2985432386879978
351 2 -8.2042570346292454 12.2896067069169348 9.5198335129929141
352 2 -14.0047190145263638 -2.1832017836121915 27.1315255120298069
353 2 -19.8051809944234734 -16.6560102741412983 44.7432175110666819
354 2 -25.6056429743205953 -31.1288187646704237 62.3549095101035817
355 2 -31.4061049542177066 -45.6016272551995385 79.9666015091404745
356 2 -9.7196930473951575 7.3864993678878959 14.7557419451390182
357 2 -15.5201550272922706 -7.0863091226412225 32.3674339441759074
358 2 -21.3206170071893908 -21.5591176131703435 49.9791259432128001
359 2 -27.1210789870865021 -36.0319261036994547 67.5908179422496858
360 2 -32.9215409669836276 -50.5047345942285801 85.2025099412865927
361 2 -9.4584109762286204 12.5261202334749182 11.4238002155914966
362 2 -15.2588729561257370 -1.9466882570542041 29.0354922146283911
363 2 -21.0593349360228537 -16.4194967475833309 46.6471842136652839
364 2 -26.8597969159199650 -30.8923052381124457 64.2588762127021766
365 2 -32.6602588958170799 -45.3651137286415675 81.8705682117390552
366 2 -10.9738469889945325 7.6230128944458810 16.6597086477375989
367 2 -16.7743089688916527 -6.8497955960832391 34.2714006467744952
368 2 -22.5747709487887640 -21.3226040866123512 51.8830926458113737
369 2 -28.3752329286858789 -35.7954125771414766 69.4947846448482665
370 2 -34.1756949085829902 -50.2682210676705878 87.1064766438851450
371 2 21.5429413162700385 -1.7306519299072414 12.5546665284983323
372 2 15.7424793363729254 -16.2034604204363788 30.1663585275352304
373 2 9.9420173564758016 -30.6762689109655078 47.7780505265721303
374 2 4.1415553765786886 -45.1490774014946368 65.3897425256090230
375 2 -1.6589066033184288 -59.6218858920237622 83.0014345246459015
376 2 20.5761976529538515 1.0461078386245091 12.5546665284983323
377 2 14.7757356730567384 -13.4267006519046230 30.1663585275352304
378 2 8.9752736931596182 -27.8995091424337573 47.7780505265721303
379 2 3.1748117132625016 -42.3723176329628828 65.3897425256090230
380 2 -2.6256502666346191 -56.8451261234920224 83.0014345246459015
381 2 20.8178835687829036 -3.5397529912233847 14.7561280283779439
382 2 15.0174215888857798 -18.0125614817525204 32.3678200274148367
383 2 9.2169596089886650 -32.4853699722816529 49.9795120264517365
384 2 3.4164976290915479 -46.9581784628107783 67.5912040254886364
385 2 -2.3839643508055692 -61.4309869533399251 85.2028960245255149
386 2 19.6094539896376681 3.8228676071562595 12.5546665284983323
387 2 13.8089920097405514 -10.6499408833728779 30.1663585275352304
388 2 8.0085300298434277 -25.1227493739020069 47.7780505265721303
389 2 2.2080680499463181 -39.5955578644311359 65.3897425256090230
390 2 -3.5923939299508025 -54.0683663549602684 83.0014345246459015
391 2 19.8511399054667201 -0.7629932226916361 14.7561280283779439
392 2 14.0506779255695964 -15.2358017132207646 32.3678200274148367
393 2 8.2502159456724780 -29.7086102037498989 49.9795120264517365
394 2 2.4497539657753609 -44.1814186942790244 67.5912040254886364
395 2 -3.3507080141217562 -58.6542271848081640 85.2028960245255149
396 2 20.0928258212957580 -5.3488540525395232 16.9575895282575573
397 2 14.2923638413986467 -19.8216625430686619 34.5692815272944500
398 2 8.4919018615015247 -34.2944710335977945 52.1809735263313499
399 2 2.6914398816044076 -48.7672795241269199 69.7926655253682497
400 2 -3.1090220982927090 -63.2400880146560667 87.4043575244051425
401 2 18.6427103263214846 6.5996273756880131 12.5546665284983323
402 2 12.8422483464243644 -7.8731811148411230 30.1663585275352304
403 2 7.0417863665272407 -22.3459896053702565 47.7780505265721303
404 2 1.2413243866301276 -36.8187980958993819 65.3897425256090230
405 2 -4.5591375932669864 -51.2916065864285073 83.0014345246459015
406 2 18.8843962421505296 2.0137665458401175 14.7561280283779457
407 2 13.0839342622534094 -12.4590419446890088 32.3678200274148367
408 2 7.2834722823562945 -26.9318504352181485 49.9795120264517365
409 2 1.4830103024591776 -41.4046589257472775 67.5912040254886364
410 2 -4.3174516774379397 -55.8774674162763958 85.2028960245255149
411 2 19.1260821579795710 -2.5720942840077723 16.9575895282575573
412 2 13.3256201780824561 -17.0449027745369079 34.5692815272944500
413 2 7.5251581981853413 -31.5177112650660440 52.1809735263313499
414 2 1.7246962182882206 -45.9905197555951659 69.7926655253682497
415 2 -4.0757657616088991 -60.4633282461243198 87.4043575244051567
416 2 19.3677680738086231 -7.1579551138556665 19.1590510281371671
417 2 13.5673060939115029 -21.6307636043848035 36.7707430271740705
418 2 7.7668441140143836 -36.1035720949139289 54.3824350262109633
419 2 1.9663821341172707 -50.5763805854430757 71.9941270252478631
420 2 25.1682300537057380 7.3148533766734030 1.5473590291003041
421 2 17.6759666630052905 9.3763871442197626 12.5546665284983288
422 2 11.8755046831081756 -5.0964213463093690 30.1663585275352268
423 2 6.0750427032110572 -19.5692298368385131 47.7780505265721303
424 2 0.2745807233139440 -34.0420383273676350 65.3897425256090230
425 2 -5.5258812565831805 -48.5148468178967605 83.0014345246459015
426 2 17.9176525788343390 4.7905263143718715 14.7561280283779457
427 2 12.1171905989372188 -9.6822821761572602 32.3678200274148367
428 2 6.3167286190401075 -24.1550906666863980 49.9795120264517365
429 2 0.5162666391429870 -38.6278991572155235 67.5912040254886364
430 2 -5.2841953407541267 -53.1007076477446560 85.2028960245255149
431 2 18.1593384946633876 0.2046654845239780 16.9575895282575573
432 2 12.3588765147662727 -14.2681430060051628 34.5692815272944500
433 2 6.5584145348691543 -28.7409514965342936 52.1809735263313499
434 2 0.7579525549720336 -43.2137599870634190 69.7926655253682497
435 2 -5.0425094249250861 -57.6865684775925587 87.4043575244051567
436 2 18.4010244104924396 -4.3811953453239161 19.1590510281371671
437 2 12.6005624305953159 -18.8540038358530495 36.7707430271740634
438 2 6.8001004506982037 -33.3268123263821821 54.3824350262109633
439 2 0.9996384708010801 -47.7996208169113146 71.9941270252478631
440 2 24.2014863903895545 10.0916131452051410 1.5473590291003039
441 2 18.6427103263214811 -8.9670561751718054 21.3605125280167805
442 2 12.8422483464243697 -23.4398646657009451 38.9722045270536697
443 2 7.0417863665272469 -37.9126731562300776 56.5838965260905766
444 2 1.2413243866301296 -52.3854816467592030 74.1955885251274481
445 2 24.4431723062186066 5.5057523153572570 3.7488205289799077