ITEM: TIMESTEP
0
ITEM: NUMBER OF ATOMS
3188
ITEM: BOX BOUNDS xy xz yz ss pp pp
-3.0777828000073983e-03 2.8878218263000015e+01 0.0000000000000000e+00
-1.5099562470000000e+01 3.5651744729999997e+01 -0.0000000000000000e+00
0.0000000000000000e+00 3.2296286400000000e+01 -1.5099562470000000e+01
ITEM: ATOMS id type xu yu zu
38 2 1.36718 -0.419432 1.88745
73 2 4.10155 -4.40404 10.9052
176 2 2.73436 0 0
193 2 2.73436 -0.838865 3.77489
226 2 -4.98733e-16 -3.98461 9.01779
243 2 -6.99527e-16 -4.82347 12.7927
309 2 25.7181 0.557078 1.53612
310 2 25.7181 -0.701219 4.22748
311 2 25.7181 -1.95952 6.91883
312 2 25.7181 -3.21781 9.61019
313 2 25.7181 -4.47611 12.3015
314 2 25.7181 -5.73441 14.9929
453 2 20.6554 0.103199 1.82495
454 2 20.6554 -1.1551 4.51631
455 2 20.6554 -2.41339 7.20766
456 2 20.6554 -3.67169 9.89902
457 2 20.6554 -4.92999 12.5904
458 2 20.6554 -6.18829 15.2817
729 2 23.1856 -1.07972 2.57772
730 2 23.1856 -2.33802 5.26908
731 2 23.1856 -3.59632 7.96043
732 2 23.1856 -4.85461 10.6518
733 2 23.1856 -6.11291 13.3431
734 2 23.1856 -7.37121 16.0345
741 2 15.5934 -0.350609 2.11374
742 2 15.5934 -1.60891 4.8051
743 2 15.5934 -2.8672 7.49645
744 2 15.5934 -4.1255 10.1878
745 2 15.5934 -5.3838 12.8792
746 2 15.5934 -6.64209 15.5705
1173 2 8.00204 0.378576 1.64971
1174 2 8.00204 -0.879721 4.34107
1175 2 8.00204 -2.13802 7.03243
1176 2 8.00204 -3.39631 9.72378
1177 2 8.00204 -4.65461 12.4151
1178 2 8.00204 -5.91291 15.1065
1317 2 10.53 -0.804552 2.40261
1318 2 10.53 -2.06285 5.09397
1319 2 10.53 -3.32115 7.78532
1320 2 10.53 -4.57944 10.4767
1321 2 10.53 -5.83774 13.168
1322 2 10.53 -7.09604 15.8594
1605 2 18.124 0.555512 1.53712
2025 1 28.8751 -0.569647 2.25313
2026 1 28.8751 -1.82794 4.94448
2027 1 28.8751 -3.08624 7.63584
2028 1 28.8751 -4.34454 10.3272
2029 1 28.8751 -5.60283 13.0186
2030 1 28.8751 -6.86113 15.7099
2037 1 13.697 -0.520627 2.22193
2038 1 13.697 -1.77892 4.91329
2039 1 13.697 -3.03722 7.60465
2040 1 13.697 -4.29552 10.296
2041 1 13.697 -5.55381 12.9874
2042 1 13.697 -6.81211 15.6787
2181 1 23.8196 0.386882 1.64443
2182 1 23.8196 -0.871415 4.33578
2183 1 23.8196 -2.12971 7.02714
2184 1 23.8196 -3.38801 9.7185
2185 1 23.8196 -4.64631 12.4099
2186 1 23.8196 -5.9046 15.1012
2469 1 16.2206 0.384866 1.64571
2613 1 18.7588 -0.0668271 1.93315
2614 1 18.7588 -1.32512 4.62451
2615 1 18.7588 -2.58342 7.31586
2616 1 18.7588 -3.84172 10.0072
2617 1 18.7588 -5.10001 12.6986
2618 1 18.7588 -6.35831 15.3899
2757 1 6.10368 0.208386 1.75801
2758 1 6.10368 -1.04991 4.44937
2759 1 6.10368 -2.30821 7.14073
2760 1 6.10368 -3.5665 9.83209
2761 1 6.10368 -4.8248 12.5234
2762 1 6.10368 -6.0831 15.2148
3033 1 21.2825 -1.25034 2.68629
3034 1 21.2825 -2.50864 5.37765
3035 1 21.2825 -3.76693 8.06901
3036 1 21.2825 -5.02523 10.7604
3037 1 21.2825 -6.28353 13.4517
3038 1 21.2825 -7.54182 16.1431
3045 1 8.63226 -0.974683 2.51088
3046 1 8.63226 -2.23298 5.20223
3047 1 8.63226 -3.49128 7.89359
3048 1 8.63226 -4.74957 10.5849
3049 1 8.63226 -6.00787 13.2763
3050 1 8.63226 -7.26617 15.9677
22 2 4.10155 1.88745 0.419432
36 2 1.36718 3.35546 2.72631
39 2 4.10155 1.04858 4.19432
55 2 1.36718 -1.2583 5.66234
56 2 4.10155 0.209716 7.96921
71 2 1.36718 -2.09716 9.43723
72 2 4.10155 -0.629148 11.7441
88 2 1.36718 -2.93603 13.2121
90 2 4.10155 -5.2429 14.6801
175 2 2.73436 3.77489 0.838865
191 2 -6.00648e-16 1.46801 2.30688
192 2 2.73436 2.93603 4.61376
208 2 -7.99274e-16 0.629148 6.08177
210 2 2.73436 -1.67773 7.54978
224 2 -1.09895e-15 -0.209716 9.85666
227 2 2.73436 -2.51659 11.3247
244 2 2.73436 -3.35546 15.0996
321 2 25.7181 2.79755 2.00099
322 2 25.7181 1.53925 4.69235
323 2 25.7181 1.01146 6.91883
324 2 25.7181 -0.246834 9.61019
325 2 25.7181 -1.50513 12.3015
326 2 25.7181 -2.76343 14.9929
465 2 20.6554 2.34367 2.28982
466 2 20.6554 1.81588 4.51631
467 2 20.6554 0.557584 7.20766
468 2 20.6554 -0.700713 9.89902
469 2 20.6554 -1.95901 12.5904
470 2 20.6554 -3.21731 15.2817
597 2 23.1856 1.16075 3.04259
598 2 23.1856 0.63296 5.26908
599 2 23.1856 -0.625337 7.96043
600 2 23.1856 -1.88363 10.6518
601 2 23.1856 -3.14193 13.3431
602 2 23.1856 -4.40023 16.0345
753 2 15.5934 1.88986 2.57861
754 2 15.5934 1.36207 4.8051
755 2 15.5934 0.103776 7.49645
756 2 15.5934 -1.15452 10.1878
757 2 15.5934 -2.41282 12.8792
758 2 15.5934 -3.67111 15.5705
885 2 5.46951 0.830779 1.36195
886 2 5.46951 0.302994 3.58843
887 2 5.46951 -0.955303 6.27979
888 2 5.46951 -2.2136 8.97115
889 2 5.46951 -3.4719 11.6625
890 2 5.46951 -4.73019 14.3539
897 2 5.46951 3.80176 1.36195
898 2 5.46951 2.54346 4.0533
899 2 5.46951 2.01568 6.27979
900 2 5.46951 0.757379 8.97115
901 2 5.46951 -0.500918 11.6625
902 2 5.46951 -1.75922 14.3539
1029 2 13.062 1.51145 0.928791
1030 2 13.062 0.983665 3.15528
1031 2 13.062 -0.274632 5.84663
1032 2 13.062 -1.53293 8.53799
1033 2 13.062 -2.79123 11.2293
1034 2 13.062 -4.04952 13.9207
1185 2 8.00204 2.61904 2.11458
1186 2 8.00204 1.36075 4.80594
1187 2 8.00204 0.832961 7.03243
1188 2 8.00204 -0.425336 9.72378
1189 2 8.00204 -1.68363 12.4151
1190 2 8.00204 -2.94193 15.1065
1329 2 10.53 1.43592 2.86748
1330 2 10.53 0.90813 5.09397
1331 2 10.53 -0.350167 7.78532
1332 2 10.53 -1.60846 10.4767
1333 2 10.53 -2.86676 13.168
1334 2 10.53 -4.12506 15.8594
1461 2 28.2465 0.935216 3.18611
1462 2 28.2465 -0.323081 5.87747
1463 2 28.2465 -1.58138 8.56882
1464 2 28.2465 -2.83967 11.2602
1465 2 28.2465 -4.09797 13.9515
1472 2 28.2465 1.463 0.959622
1606 2 18.124 0.0277261 3.7636
1607 2 18.124 -1.23057 6.45496
1608 2 18.124 -2.48887 9.14632
1609 2 18.124 -3.74716 11.8377
1610 2 18.124 -5.00546 14.529
1617 2 18.124 3.52649 1.53712
1618 2 18.124 2.26819 4.22847
1619 2 18.124 1.74041 6.45496
1620 2 18.124 0.482111 9.14632
1621 2 18.124 -0.776186 11.8377
1622 2 18.124 -2.03448 14.529
1749 1 11.1587 1.34082 1.03737
1750 1 11.1587 0.813035 3.26386
1751 1 11.1587 -0.445262 5.95522
1752 1 11.1587 -1.70356 8.64657
1753 1 11.1587 -2.96186 11.3379
1754 1 11.1587 -4.22015 14.0293
1893 1 28.8751 1.67082 2.718
1894 1 28.8751 1.14304 4.94448
1895 1 28.8751 -0.115262 7.63584
1896 1 28.8751 -1.37356 10.3272
1897 1 28.8751 -2.63186 13.0186
1898 1 28.8751 -3.89015 15.7099
2049 1 13.697 1.71984 2.6868
2050 1 13.697 1.19206 4.91329
2051 1 13.697 -0.0662417 7.60465
2052 1 13.697 -1.32454 10.296
2053 1 13.697 -2.58284 12.9874
2054 1 13.697 -3.84113 15.6787
2193 1 23.8196 2.62735 2.1093
2194 1 23.8196 1.36905 4.80065
2195 1 23.8196 0.841267 7.02714
2196 1 23.8196 -0.41703 9.7185
2197 1 23.8196 -1.67533 12.4099
2198 1 23.8196 -2.93362 15.1012
2325 1 26.349 0.765104 3.29436
2326 1 26.349 -0.493193 5.98572
2327 1 26.349 -1.75149 8.67708
2328 1 26.349 -3.00979 11.3684
2329 1 26.349 -4.26808 14.0598
2336 1 26.349 1.29289 1.06788
2470 1 16.2206 -0.14292 3.87219
2471 1 16.2206 -1.40122 6.56355
2472 1 16.2206 -2.65951 9.25491
2473 1 16.2206 -3.91781 11.9463
2474 1 16.2206 -5.17611 14.6376
2481 1 16.2206 3.35584 1.64571
2482 1 16.2206 2.09755 4.33707
2483 1 16.2206 1.56976 6.56355
2484 1 16.2206 0.311465 9.25491
2485 1 16.2206 -0.946832 11.9463
2486 1 16.2206 -2.20513 14.6376
2625 1 18.7588 2.17364 2.39802
2626 1 18.7588 1.64585 4.62451
2627 1 18.7588 0.387558 7.31586
2628 1 18.7588 -0.870739 10.0072
2629 1 18.7588 -2.12904 12.6986
2630 1 18.7588 -3.38733 15.3899
2769 1 6.10368 2.44885 2.22288
2770 1 6.10368 1.92107 4.44937
2771 1 6.10368 0.662771 7.14073
2772 1 6.10368 -0.595526 9.83209
2773 1 6.10368 -1.85382 12.5234
2774 1 6.10368 -3.11212 15.2148
2901 1 21.2825 0.990129 3.15116
2902 1 21.2825 0.462344 5.37765
2903 1 21.2825 -0.795953 8.06901
2904 1 21.2825 -2.05425 10.7604
2905 1 21.2825 -3.31255 13.4517
2906 1 21.2825 -4.57084 16.1431
3057 1 8.63226 1.26578 2.97575
3058 1 8.63226 0.737999 5.20223
3059 1 8.63226 -0.520298 7.89359
3060 1 8.63226 -1.77859 10.5849
3061 1 8.63226 -3.03689 13.2763
3062 1 8.63226 -4.29519 15.9677
1041 2 13.062 4.48243 0.928791
1042 2 13.062 3.22413 3.62015
1473 2 28.2465 3.17568 3.65098
1484 2 28.2465 4.43398 0.959622
1761 1 11.1587 4.3118 1.03737
1762 1 11.1587 3.0535 3.72873
2337 1 26.349 3.00557 3.75923
2348 1 26.349 4.26387 1.06788
104 2 1.36718 -3.77489 16.987
107 2 4.10155 -6.08177 18.455
121 2 1.36718 -4.61376 20.7619
123 2 1.36718 -8.38865 19.923
124 2 4.10155 -6.92063 22.2299
140 2 1.36718 -9.22751 23.6979
141 2 4.10155 -7.7595 26.0048
142 2 4.10155 -11.5344 25.1659
150 2 1.36718 -10.0664 27.4728
152 2 4.10155 -12.3733 28.9408
154 2 1.36718 -10.9052 31.2477
260 2 -9.98767e-16 -5.66234 16.5676
261 2 2.73436 -4.19432 18.8745
262 2 2.73436 -7.96921 18.0356
277 2 -1.29974e-15 -6.5012 20.3425
279 2 2.73436 -8.80808 21.8105
293 2 -1.59942e-15 -7.34007 24.1174
295 2 2.73436 -9.64694 25.5854
303 2 -1.89865e-15 -8.17893 27.8922
305 2 -8.98587e-16 -11.9538 27.0534
306 2 2.73436 -10.4858 29.3603
308 2 -1.19956e-15 -12.7927 30.8283
315 2 25.7181 -6.9927 17.6843
316 2 25.7181 -8.251 20.3756
317 2 25.7181 -9.5093 23.067
318 2 25.7181 -10.7676 25.7583
319 2 25.7181 -12.0259 28.4497
320 2 25.7181 -13.2842 31.141
327 2 25.7181 -4.02172 17.6843
328 2 25.7181 -5.28002 20.3756
329 2 25.7181 -6.53832 23.067
330 2 25.7181 -7.79661 25.7583
331 2 25.7181 -9.05491 28.4497
332 2 25.7181 -10.3132 31.141
459 2 20.6554 -7.44658 17.9731
460 2 20.6554 -8.70488 20.6645
461 2 20.6554 -9.96318 23.3558
462 2 20.6554 -11.2215 26.0472
463 2 20.6554 -12.4798 28.7385
464 2 20.6554 -13.7381 31.4299
471 2 20.6554 -4.4756 17.9731
472 2 20.6554 -5.7339 20.6645
473 2 20.6554 -6.9922 23.3558
474 2 20.6554 -8.25049 26.0472
475 2 20.6554 -9.50879 28.7385
476 2 20.6554 -10.7671 31.4299
603 2 23.1856 -5.65852 18.7259
604 2 23.1856 -6.91682 21.4172
605 2 23.1856 -8.17512 24.1086
606 2 23.1856 -9.43341 26.7999
607 2 23.1856 -10.6917 29.4913
608 2 23.1856 -11.95 32.1826
735 2 23.1856 -8.6295 18.7259
736 2 23.1856 -9.8878 21.4172
737 2 23.1856 -11.1461 24.1086
738 2 23.1856 -12.4044 26.7999
739 2 23.1856 -13.6627 29.4913
740 2 23.1856 -14.921 32.1826
747 2 15.5934 -7.90039 18.2619
748 2 15.5934 -9.15869 20.9532
749 2 15.5934 -10.417 23.6446
750 2 15.5934 -11.6753 26.336
751 2 15.5934 -12.9336 29.0273
752 2 15.5934 -14.1919 31.7187
759 2 15.5934 -4.92941 18.2619
760 2 15.5934 -6.18771 20.9532
761 2 15.5934 -7.44601 23.6446
762 2 15.5934 -8.7043 26.336
763 2 15.5934 -9.9626 29.0273
764 2 15.5934 -11.2209 31.7187
891 2 5.46951 -5.98849 17.0452
892 2 5.46951 -7.24679 19.7366
893 2 5.46951 -8.50508 22.4279
894 2 5.46951 -9.76338 25.1193
895 2 5.46951 -11.0217 27.8106
896 2 5.46951 -12.28 30.502
903 2 5.46951 -3.01751 17.0452
904 2 5.46951 -4.27581 19.7366
905 2 5.46951 -5.53411 22.4279
906 2 5.46951 -6.7924 25.1193
907 2 5.46951 -8.0507 27.8106
908 2 5.46951 -9.309 30.502
1035 2 13.062 -5.30782 16.6121
1036 2 13.062 -6.56612 19.3034
1037 2 13.062 -7.82441 21.9948
1038 2 13.062 -9.08271 24.6861
1039 2 13.062 -10.341 27.3775
1040 2 13.062 -11.5993 30.0688
1179 2 8.00204 -7.17121 17.7979
1180 2 8.00204 -8.4295 20.4892
1181 2 8.00204 -9.6878 23.1806
1182 2 8.00204 -10.9461 25.8719
1183 2 8.00204 -12.2044 28.5633
1184 2 8.00204 -13.4627 31.2546
1191 2 8.00204 -4.20023 17.7979
1192 2 8.00204 -5.45852 20.4892
1193 2 8.00204 -6.71682 23.1806
1194 2 8.00204 -7.97512 25.8719
1195 2 8.00204 -9.23341 28.5633
1196 2 8.00204 -10.4917 31.2546
1323 2 10.53 -8.35433 18.5508
1324 2 10.53 -9.61263 21.2421
1325 2 10.53 -10.8709 23.9335
1326 2 10.53 -12.1292 26.6248
1327 2 10.53 -13.3875 29.3162
1328 2 10.53 -14.6458 32.0075
1335 2 10.53 -5.38335 18.5508
1336 2 10.53 -6.64165 21.2421
1337 2 10.53 -7.89995 23.9335
1338 2 10.53 -9.15824 26.6248
1339 2 10.53 -10.4165 29.3162
1340 2 10.53 -11.6748 32.0075
1466 2 28.2465 -5.35627 16.6429
1467 2 28.2465 -6.61456 19.3343
1468 2 28.2465 -7.87286 22.0256
1469 2 28.2465 -9.13116 24.717
1470 2 28.2465 -10.3895 27.4083
1471 2 28.2465 -11.6478 30.0997
1611 2 18.124 -6.26376 17.2204
1612 2 18.124 -7.52206 19.9117
1613 2 18.124 -8.78035 22.6031
1614 2 18.124 -10.0386 25.2945
1615 2 18.124 -11.2969 27.9858
1616 2 18.124 -12.5552 30.6772
1623 2 18.124 -3.29278 17.2204
1624 2 18.124 -4.55108 19.9117
1625 2 18.124 -5.80937 22.6031
1626 2 18.124 -7.06767 25.2945
1627 2 18.124 -8.32597 27.9858
1628 2 18.124 -9.58426 30.6772
1755 1 11.1587 -5.47845 16.7206
1756 1 11.1587 -6.73675 19.412
1757 1 11.1587 -7.99504 22.1034
1758 1 11.1587 -9.25334 24.7947
1759 1 11.1587 -10.5116 27.4861
1760 1 11.1587 -11.7699 30.1774
1899 1 28.8751 -5.14845 18.4013
1900 1 28.8751 -6.40675 21.0926
1901 1 28.8751 -7.66504 23.784
1902 1 28.8751 -8.92334 26.4753
1903 1 28.8751 -10.1816 29.1667
1904 1 28.8751 -11.4399 31.8581
2031 1 28.8751 -8.11943 18.4013
2032 1 28.8751 -9.37772 21.0926
2033 1 28.8751 -10.636 23.784
2034 1 28.8751 -11.8943 26.4753
2035 1 28.8751 -13.1526 29.1667
2036 1 28.8751 -14.4109 31.8581
2043 1 13.697 -8.07041 18.3701
2044 1 13.697 -9.3287 21.0614
2045 1 13.697 -10.587 23.7528
2046 1 13.697 -11.8453 26.4441
2047 1 13.697 -13.1036 29.1355
2048 1 13.697 -14.3619 31.8269
2055 1 13.697 -5.09943 18.3701
2056 1 13.697 -6.35773 21.0614
2057 1 13.697 -7.61602 23.7528
2058 1 13.697 -8.87432 26.4441
2059 1 13.697 -10.1326 29.1355
2060 1 13.697 -11.3909 31.8269
2187 1 23.8196 -7.1629 17.7926
2188 1 23.8196 -8.4212 20.4839
2189 1 23.8196 -9.67949 23.1753
2190 1 23.8196 -10.9378 25.8666
2191 1 23.8196 -12.1961 28.558
2192 1 23.8196 -13.4544 31.2494
2199 1 23.8196 -4.19192 17.7926
2200 1 23.8196 -5.45022 20.4839
2201 1 23.8196 -6.70851 23.1753
2202 1 23.8196 -7.96681 25.8666
2203 1 23.8196 -9.22511 28.558
2204 1 23.8196 -10.4834 31.2494
2330 1 26.349 -5.52638 16.7511
2331 1 26.349 -6.78468 19.4425
2332 1 26.349 -8.04297 22.1339
2333 1 26.349 -9.30127 24.8252
2334 1 26.349 -10.5596 27.5166
2335 1 26.349 -11.8179 30.2079
2475 1 16.2206 -6.4344 17.329
2476 1 16.2206 -7.6927 20.0203
2477 1 16.2206 -8.951 22.7117
2478 1 16.2206 -10.2093 25.4031
2479 1 16.2206 -11.4676 28.0944
2480 1 16.2206 -12.7259 30.7858
2487 1 16.2206 -3.46343 17.329
2488 1 16.2206 -4.72172 20.0203
2489 1 16.2206 -5.98002 22.7117
2490 1 16.2206 -7.23832 25.4031
2491 1 16.2206 -8.49661 28.0944
2492 1 16.2206 -9.75491 30.7858
2619 1 18.7588 -7.61661 18.0813
2620 1 18.7588 -8.87491 20.7726
2621 1 18.7588 -10.1332 23.464
2622 1 18.7588 -11.3915 26.1554
2623 1 18.7588 -12.6498 28.8467
2624 1 18.7588 -13.9081 31.5381
2631 1 18.7588 -4.64563 18.0813
2632 1 18.7588 -5.90393 20.7726
2633 1 18.7588 -7.16222 23.464
2634 1 18.7588 -8.42052 26.1554
2635 1 18.7588 -9.67882 28.8467
2636 1 18.7588 -10.9371 31.5381
2763 1 6.10368 -7.3414 17.9062
2764 1 6.10368 -8.59969 20.5975
2765 1 6.10368 -9.85799 23.2889
2766 1 6.10368 -11.1163 25.9802
2767 1 6.10368 -12.3746 28.6716
2768 1 6.10368 -13.6329 31.3629
2775 1 6.10368 -4.37042 17.9062
2776 1 6.10368 -5.62871 20.5975
2777 1 6.10368 -6.88701 23.2889
2778 1 6.10368 -8.14531 25.9802
2779 1 6.10368 -9.4036 28.6716
2780 1 6.10368 -10.6619 31.3629
2907 1 21.2825 -5.82914 18.8344
2908 1 21.2825 -7.08744 21.5258
2909 1 21.2825 -8.34573 24.2172
2910 1 21.2825 -9.60403 26.9085
2911 1 21.2825 -10.8623 29.5999
2912 1 21.2825 -12.1206 32.2912
3039 1 21.2825 -8.80012 18.8344
3040 1 21.2825 -10.0584 21.5258
3041 1 21.2825 -11.3167 24.2172
3042 1 21.2825 -12.575 26.9085
3043 1 21.2825 -13.8333 29.5999
3044 1 21.2825 -15.0916 32.2912
3051 1 8.63226 -8.52446 18.659
3052 1 8.63226 -9.78276 21.3504
3053 1 8.63226 -11.0411 24.0417
3054 1 8.63226 -12.2994 26.7331
3055 1 8.63226 -13.5577 29.4244
3056 1 8.63226 -14.8159 32.1158
3063 1 8.63226 -5.55349 18.659
3064 1 8.63226 -6.81178 21.3504
3065 1 8.63226 -8.07008 24.0417
3066 1 8.63226 -9.32838 26.7331
3067 1 8.63226 -10.5867 29.4244
3068 1 8.63226 -11.845 32.1158
21 2 4.10155 5.66234 1.2583
34 2 1.36718 7.13035 3.56517
37 2 4.10155 4.82347 5.03319
51 2 1.36718 6.29148 7.34007
53 2 1.36718 2.51659 6.5012
54 2 4.10155 3.98461 8.80808
69 2 1.36718 1.67773 10.2761
70 2 4.10155 3.14574 12.583
86 2 1.36718 0.838865 14.051
89 2 4.10155 -1.46801 15.519
172 2 -1.89865e-15 9.85666 0.209716
174 2 2.73436 7.54978 1.67773
189 2 -1.39862e-15 5.2429 3.14574
190 2 2.73436 6.71092 5.45262
206 2 -1.6996e-15 4.40404 6.92063
207 2 2.73436 5.87205 9.22751
209 2 2.73436 2.09716 8.38865
222 2 -1.89865e-15 3.56517 10.6955
225 2 2.73436 1.2583 12.1635
239 2 -2.19963e-15 2.72631 14.4704
241 2 -1.39862e-15 -1.04858 13.6315
242 2 2.73436 0.419432 15.9384
333 2 25.7181 5.76852 2.00099
334 2 25.7181 4.51023 4.69235
335 2 25.7181 3.25193 7.3837
336 2 25.7181 2.72415 9.61019
337 2 25.7181 1.46585 12.3015
338 2 25.7181 0.207551 14.9929
477 2 20.6554 5.31465 2.28982
478 2 20.6554 4.05635 4.98118
479 2 20.6554 2.79805 7.67254
480 2 20.6554 2.27027 9.89902
481 2 20.6554 1.01197 12.5904
482 2 20.6554 -0.246328 15.2817
489 2 20.6554 8.28562 2.28982
490 2 20.6554 7.02733 4.98118
491 2 20.6554 5.76903 7.67254
492 2 20.6554 4.51073 10.3639
493 2 20.6554 3.98295 12.5904
494 2 20.6554 2.72465 15.2817
609 2 23.1856 4.13172 3.04259
610 2 23.1856 2.87343 5.73395
611 2 23.1856 2.34564 7.96043
612 2 23.1856 1.08735 10.6518
613 2 23.1856 -0.170952 13.3431
614 2 23.1856 -1.42925 16.0345
621 2 23.1856 7.1027 3.04259
622 2 23.1856 5.84441 5.73395
623 2 23.1856 4.58611 8.4253
624 2 23.1856 4.05832 10.6518
625 2 23.1856 2.80003 13.3431
626 2 23.1856 1.54173 16.0345
765 2 15.5934 4.86084 2.57861
766 2 15.5934 3.60254 5.26997
767 2 15.5934 3.07475 7.49645
768 2 15.5934 1.81646 10.1878
769 2 15.5934 0.558161 12.8792
770 2 15.5934 -0.700136 15.5705
777 2 15.5934 7.83182 2.57861
778 2 15.5934 6.57352 5.26997
779 2 15.5934 5.31522 7.96132
780 2 15.5934 4.05693 10.6527
781 2 15.5934 3.52914 12.8792
782 2 15.5934 2.27084 15.5705
909 2 5.46951 6.77274 1.36195
910 2 5.46951 5.51444 4.0533
911 2 5.46951 4.25614 6.74466
912 2 5.46951 3.72836 8.97115
913 2 5.46951 2.47006 11.6625
914 2 5.46951 1.21176 14.3539
3086 1 8.63226 1.64677 15.9677
3085 1 8.63226 2.90507 13.2763
1043 2 13.062 2.69635 5.84663
1044 2 13.062 1.43805 8.53799
1045 2 13.062 0.179753 11.2293
1046 2 13.062 -1.07854 13.9207
1053 2 13.062 7.45341 0.928791
1054 2 13.062 6.19511 3.62015
1055 2 13.062 4.93681 6.31151
1056 2 13.062 3.67852 9.00286
1057 2 13.062 3.15073 11.2293
1058 2 13.062 1.89243 13.9207
1197 2 8.00204 5.59002 2.11458
1198 2 8.00204 4.33173 4.80594
1199 2 8.00204 3.07343 7.4973
1200 2 8.00204 2.54564 9.72378
1201 2 8.00204 1.28735 12.4151
1202 2 8.00204 0.0290489 15.1065
1209 2 8.00204 8.561 2.11458
1210 2 8.00204 7.3027 4.80594
1211 2 8.00204 6.04441 7.4973
1212 2 8.00204 4.78611 10.1887
1213 2 8.00204 4.25832 12.4151
1214 2 8.00204 3.00003 15.1065
1341 2 10.53 4.40689 2.86748
1342 2 10.53 3.1486 5.55884
1343 2 10.53 2.62081 7.78532
1344 2 10.53 1.36252 10.4767
1345 2 10.53 0.104218 13.168
1346 2 10.53 -1.15408 15.8594
1353 2 10.53 7.37787 2.86748
1354 2 10.53 6.11958 5.55884
1355 2 10.53 4.86128 8.2502
1356 2 10.53 4.33349 10.4767
1357 2 10.53 3.0752 13.168
1358 2 10.53 1.8169 15.8594
3084 1 8.63226 4.16336 10.5849
1474 2 28.2465 2.6479 5.87747
1475 2 28.2465 1.3896 8.56882
1476 2 28.2465 0.131304 11.2602
1477 2 28.2465 -1.12699 13.9515
3083 1 8.63226 4.69115 8.35846
1485 2 28.2465 6.14666 3.65098
1486 2 28.2465 4.88837 6.34234
1487 2 28.2465 3.63007 9.03369
1488 2 28.2465 3.10228 11.2602
1489 2 28.2465 1.84399 13.9515
1496 2 28.2465 7.40496 0.959622
1629 2 18.124 6.49747 1.53712
1630 2 18.124 5.23917 4.22847
1631 2 18.124 3.98088 6.91983
1632 2 18.124 3.45309 9.14632
1633 2 18.124 2.19479 11.8377
1634 2 18.124 0.936496 14.529
3082 1 8.63226 5.94945 5.6671
3081 1 8.63226 7.20774 2.97575
1763 1 11.1587 2.52572 5.95522
1764 1 11.1587 1.26742 8.64657
1765 1 11.1587 0.00912269 11.3379
1766 1 11.1587 -1.24917 14.0293
1773 1 11.1587 7.28278 1.03737
1774 1 11.1587 6.02448 3.72873
1775 1 11.1587 4.76618 6.42009
1776 1 11.1587 3.50789 9.11145
1777 1 11.1587 2.9801 11.3379
1778 1 11.1587 1.7218 14.0293
1905 1 28.8751 4.6418 2.718
1906 1 28.8751 3.3835 5.40935
1907 1 28.8751 2.85572 7.63584
1908 1 28.8751 1.59742 10.3272
1909 1 28.8751 0.339123 13.0186
1910 1 28.8751 -0.919174 15.7099
1917 1 28.8751 7.61278 2.718
1918 1 28.8751 6.35448 5.40935
1919 1 28.8751 5.09618 8.10071
1920 1 28.8751 4.5684 10.3272
1921 1 28.8751 3.3101 13.0186
1922 1 28.8751 2.0518 15.7099
2061 1 13.697 4.69082 2.6868
2062 1 13.697 3.43252 5.37816
2063 1 13.697 2.90474 7.60465
2064 1 13.697 1.64644 10.296
2065 1 13.697 0.388143 12.9874
2066 1 13.697 -0.870154 15.6787
2073 1 13.697 7.6618 2.6868
2074 1 13.697 6.4035 5.37816
2075 1 13.697 5.1452 8.06952
2076 1 13.697 4.61742 10.296
2077 1 13.697 3.35912 12.9874
2078 1 13.697 2.10083 15.6787
2205 1 23.8196 5.59833 2.1093
2206 1 23.8196 4.34003 4.80065
2207 1 23.8196 3.08173 7.49201
2208 1 23.8196 2.55395 9.7185
2209 1 23.8196 1.29565 12.4099
2210 1 23.8196 0.0373547 15.1012
2217 1 23.8196 8.56931 2.1093
2218 1 23.8196 7.31101 4.80065
2219 1 23.8196 6.05271 7.49201
2220 1 23.8196 4.79442 10.1834
2221 1 23.8196 4.26663 12.4099
2222 1 23.8196 3.00833 15.1012
3074 1 8.63226 -1.32421 15.9677
2338 1 26.349 2.47779 5.98572
2339 1 26.349 1.21949 8.67708
2340 1 26.349 -0.0388083 11.3684
2341 1 26.349 -1.29711 14.0598
3073 1 8.63226 -0.0659127 13.2763
2349 1 26.349 5.97655 3.75923
2350 1 26.349 4.71825 6.45059
2351 1 26.349 3.45996 9.14195
2352 1 26.349 2.93217 11.3684
2353 1 26.349 1.67387 14.0598
2360 1 26.349 7.23485 1.06788
2493 1 16.2206 6.32682 1.64571
2494 1 16.2206 5.06853 4.33707
2495 1 16.2206 3.81023 7.02842
2496 1 16.2206 3.28244 9.25491
2497 1 16.2206 2.02415 11.9463
2498 1 16.2206 0.76585 14.6376
2637 1 18.7588 5.14462 2.39802
2638 1 18.7588 3.88632 5.08938
2639 1 18.7588 3.35854 7.31586
2640 1 18.7588 2.10024 10.0072
2641 1 18.7588 0.841943 12.6986
2642 1 18.7588 -0.416354 15.3899
2649 1 18.7588 8.1156 2.39802
2650 1 18.7588 6.8573 5.08938
2651 1 18.7588 5.599 7.78073
2652 1 18.7588 4.34071 10.4721
2653 1 18.7588 3.81292 12.6986
2654 1 18.7588 2.55462 15.3899
2781 1 6.10368 5.41983 2.22288
2782 1 6.10368 4.16154 4.91424
2783 1 6.10368 2.90324 7.6056
2784 1 6.10368 2.37545 9.83209
2785 1 6.10368 1.11716 12.5234
2786 1 6.10368 -0.141141 15.2148
2793 1 6.10368 8.39081 2.22288
2794 1 6.10368 7.13251 4.91424
2795 1 6.10368 5.87422 7.6056
2796 1 6.10368 4.61592 10.297
2797 1 6.10368 4.08813 12.5234
2798 1 6.10368 2.82984 15.2148
2913 1 21.2825 3.96111 3.15116
2914 1 21.2825 2.70281 5.84252
2915 1 21.2825 2.17503 8.06901
2916 1 21.2825 0.916729 10.7604
2917 1 21.2825 -0.341568 13.4517
2918 1 21.2825 -1.59987 16.1431
2925 1 21.2825 6.93209 3.15116
2926 1 21.2825 5.67379 5.84252
2927 1 21.2825 4.41549 8.53388
2928 1 21.2825 3.88771 10.7604
2929 1 21.2825 2.62941 13.4517
2930 1 21.2825 1.37111 16.1431
3069 1 8.63226 4.23676 2.97575
3070 1 8.63226 2.97847 5.6671
3071 1 8.63226 2.45068 7.89359
3072 1 8.63226 1.19238 10.5849
345 2 25.7181 8.7395 2.00099
346 2 25.7181 7.48121 4.69235
347 2 25.7181 6.22291 7.3837
348 2 25.7181 4.96461 10.0751
2505 1 16.2206 9.2978 1.64571
2506 1 16.2206 8.03951 4.33707
2507 1 16.2206 6.78121 7.02842
2508 1 16.2206 5.52291 9.71978
87 2 4.10155 2.30688 16.3579
102 2 1.36718 0 17.8259
105 2 4.10155 -2.30688 19.2939
119 2 1.36718 -0.838865 21.6008
122 2 4.10155 -3.14574 23.0688
136 2 1.36718 -1.67773 25.3757
138 2 1.36718 -5.45262 24.5368
139 2 4.10155 -3.98461 26.8437
148 2 1.36718 -6.29148 28.3117
149 2 4.10155 -4.82347 30.6186
151 2 4.10155 -8.59836 29.7797
153 2 1.36718 -7.13035 32.0866
258 2 -1.6996e-15 -1.88745 17.4064
259 2 2.73436 -0.419432 19.7133
275 2 -1.99884e-15 -2.72631 21.1813
276 2 2.73436 -1.2583 23.4882
278 2 2.73436 -5.03319 22.6493
291 2 -2.29938e-15 -3.56517 24.9562
294 2 2.73436 -5.87205 26.4242
301 2 -2.5006e-15 -4.40404 28.7311
304 2 2.73436 -6.71092 30.1991
307 2 -2.19963e-15 -9.01779 31.6671
339 2 25.7181 -1.05075 17.6843
340 2 25.7181 -2.30904 20.3756
341 2 25.7181 -3.56734 23.067
342 2 25.7181 -4.82564 25.7583
343 2 25.7181 -6.08393 28.4497
344 2 25.7181 -7.34223 31.141
483 2 20.6554 -1.50462 17.9731
484 2 20.6554 -2.76292 20.6645
485 2 20.6554 -4.02122 23.3558
486 2 20.6554 -5.27952 26.0472
487 2 20.6554 -6.53781 28.7385
488 2 20.6554 -7.79611 31.4299
495 2 20.6554 1.46635 17.9731
496 2 20.6554 0.208057 20.6645
497 2 20.6554 -1.05024 23.3558
498 2 20.6554 -2.30854 26.0472
499 2 20.6554 -3.56683 28.7385
500 2 20.6554 -4.82513 31.4299
615 2 23.1856 -2.68755 18.7259
616 2 23.1856 -3.94584 21.4172
617 2 23.1856 -5.20414 24.1086
618 2 23.1856 -6.46244 26.7999
619 2 23.1856 -7.72073 29.4913
620 2 23.1856 -8.97903 32.1826
627 2 23.1856 0.283433 18.7259
628 2 23.1856 -0.974864 21.4172
629 2 23.1856 -2.23316 24.1086
630 2 23.1856 -3.49146 26.7999
631 2 23.1856 -4.74975 29.4913
632 2 23.1856 -6.00805 32.1826
771 2 15.5934 -1.95843 18.2619
772 2 15.5934 -3.21673 20.9532
773 2 15.5934 -4.47503 23.6446
774 2 15.5934 -5.73332 26.336
775 2 15.5934 -6.99162 29.0273
776 2 15.5934 -8.24992 31.7187
783 2 15.5934 1.01255 18.2619
784 2 15.5934 -0.245751 20.9532
785 2 15.5934 -1.50405 23.6446
786 2 15.5934 -2.76234 26.336
787 2 15.5934 -4.02064 29.0273
788 2 15.5934 -5.27894 31.7187
915 2 5.46951 -0.0465332 17.0452
916 2 5.46951 -1.30483 19.7366
917 2 5.46951 -2.56313 22.4279
918 2 5.46951 -3.82142 25.1193
919 2 5.46951 -5.07972 27.8106
920 2 5.46951 -6.33802 30.502
1047 2 13.062 -2.33684 16.6121
1048 2 13.062 -3.59514 19.3034
1049 2 13.062 -4.85343 21.9948
1050 2 13.062 -6.11173 24.6861
1051 2 13.062 -7.37003 27.3775
1052 2 13.062 -8.62833 30.0688
1059 2 13.062 0.634138 16.6121
1060 2 13.062 -0.624159 19.3034
1061 2 13.062 -1.88246 21.9948
1062 2 13.062 -3.14075 24.6861
1063 2 13.062 -4.39905 27.3775
1064 2 13.062 -5.65735 30.0688
1203 2 8.00204 -1.22925 17.7979
1204 2 8.00204 -2.48754 20.4892
1205 2 8.00204 -3.74584 23.1806
1206 2 8.00204 -5.00414 25.8719
1207 2 8.00204 -6.26244 28.5633
1208 2 8.00204 -7.52073 31.2546
1215 2 8.00204 1.74173 17.7979
1216 2 8.00204 0.483434 20.4892
1217 2 8.00204 -0.774863 23.1806
1218 2 8.00204 -2.03316 25.8719
1219 2 8.00204 -3.29146 28.5633
1220 2 8.00204 -4.54975 31.2546
1347 2 10.53 -2.41238 18.5508
1348 2 10.53 -3.67067 21.2421
1349 2 10.53 -4.92897 23.9335
1350 2 10.53 -6.18727 26.6248
1351 2 10.53 -7.44556 29.3162
1352 2 10.53 -8.70386 32.0075
1359 2 10.53 0.558603 18.5508
1360 2 10.53 -0.699694 21.2421
1361 2 10.53 -1.95799 23.9335
1362 2 10.53 -3.21629 26.6248
1363 2 10.53 -4.47458 29.3162
1364 2 10.53 -5.73288 32.0075
1478 2 28.2465 -2.38529 16.6429
1479 2 28.2465 -3.64359 19.3343
1480 2 28.2465 -4.90188 22.0256
1481 2 28.2465 -6.16018 24.717
1482 2 28.2465 -7.41848 27.4083
1483 2 28.2465 -8.67677 30.0997
1490 2 28.2465 0.585689 16.6429
1491 2 28.2465 -0.672608 19.3343
1492 2 28.2465 -1.9309 22.0256
1493 2 28.2465 -3.1892 24.717
1494 2 28.2465 -4.4475 27.4083
1495 2 28.2465 -5.7058 30.0997
1635 2 18.124 -0.321801 17.2204
1636 2 18.124 -1.5801 19.9117
1637 2 18.124 -2.83839 22.6031
1638 2 18.124 -4.09669 25.2945
1639 2 18.124 -5.35499 27.9858
1640 2 18.124 -6.61329 30.6772
1767 1 11.1587 -2.50747 16.7206
1768 1 11.1587 -3.76577 19.412
1769 1 11.1587 -5.02406 22.1034
1770 1 11.1587 -6.28236 24.7947
1771 1 11.1587 -7.54066 27.4861
1772 1 11.1587 -8.79896 30.1774
1779 1 11.1587 0.463508 16.7206
1780 1 11.1587 -0.794789 19.412
1781 1 11.1587 -2.05309 22.1034
1782 1 11.1587 -3.31138 24.7947
1783 1 11.1587 -4.56968 27.4861
1784 1 11.1587 -5.82798 30.1774
1911 1 28.8751 -2.17747 18.4013
1912 1 28.8751 -3.43577 21.0926
1913 1 28.8751 -4.69406 23.784
1914 1 28.8751 -5.95236 26.4753
1915 1 28.8751 -7.21066 29.1667
1916 1 28.8751 -8.46895 31.8581
1923 1 28.8751 0.793508 18.4013
1924 1 28.8751 -0.464789 21.0926
1925 1 28.8751 -1.72309 23.784
1926 1 28.8751 -2.98138 26.4753
1927 1 28.8751 -4.23968 29.1667
1928 1 28.8751 -5.49798 31.8581
2067 1 13.697 -2.12845 18.3701
2068 1 13.697 -3.38675 21.0614
2069 1 13.697 -4.64504 23.7528
2070 1 13.697 -5.90334 26.4441
2071 1 13.697 -7.16164 29.1355
2072 1 13.697 -8.41993 31.8269
2079 1 13.697 0.842528 18.3701
2080 1 13.697 -0.415769 21.0614
2081 1 13.697 -1.67407 23.7528
2082 1 13.697 -2.93236 26.4441
2083 1 13.697 -4.19066 29.1355
2084 1 13.697 -5.44896 31.8269
2211 1 23.8196 -1.22094 17.7926
2212 1 23.8196 -2.47924 20.4839
2213 1 23.8196 -3.73754 23.1753
2214 1 23.8196 -4.99583 25.8666
2215 1 23.8196 -6.25413 28.558
2216 1 23.8196 -7.51243 31.2494
2223 1 23.8196 1.75004 17.7926
2224 1 23.8196 0.49174 20.4839
2225 1 23.8196 -0.766557 23.1753
2226 1 23.8196 -2.02485 25.8666
2227 1 23.8196 -3.28315 28.558
2228 1 23.8196 -4.54145 31.2494
2342 1 26.349 -2.5554 16.7511
2343 1 26.349 -3.8137 19.4425
2344 1 26.349 -5.072 22.1339
2345 1 26.349 -6.33029 24.8252
2346 1 26.349 -7.58859 27.5166
2347 1 26.349 -8.84689 30.2079
2354 1 26.349 0.415577 16.7511
2355 1 26.349 -0.84272 19.4425
2356 1 26.349 -2.10102 22.1339
2357 1 26.349 -3.35931 24.8252
2358 1 26.349 -4.61761 27.5166
2359 1 26.349 -5.87591 30.2079
2499 1 16.2206 -0.492447 17.329
2500 1 16.2206 -1.75074 20.0203
2501 1 16.2206 -3.00904 22.7117
2502 1 16.2206 -4.26734 25.4031
2503 1 16.2206 -5.52563 28.0944
2504 1 16.2206 -6.78393 30.7858
2643 1 18.7588 -1.67465 18.0813
2644 1 18.7588 -2.93295 20.7726
2645 1 18.7588 -4.19124 23.464
2646 1 18.7588 -5.44954 26.1554
2647 1 18.7588 -6.70784 28.8467
2648 1 18.7588 -7.96614 31.5381
2655 1 18.7588 1.29633 18.0813
2656 1 18.7588 0.0380309 20.7726
2657 1 18.7588 -1.22027 23.464
2658 1 18.7588 -2.47856 26.1554
2659 1 18.7588 -3.73686 28.8467
2660 1 18.7588 -4.99516 31.5381
2787 1 6.10368 -1.39944 17.9062
2788 1 6.10368 -2.65773 20.5975
2789 1 6.10368 -3.91603 23.2889
2790 1 6.10368 -5.17433 25.9802
2791 1 6.10368 -6.43263 28.6716
2792 1 6.10368 -7.69092 31.3629
2799 1 6.10368 1.57154 17.9062
2800 1 6.10368 0.313244 20.5975
2801 1 6.10368 -0.945053 23.2889
2802 1 6.10368 -2.20335 25.9802
2803 1 6.10368 -3.46165 28.6716
2804 1 6.10368 -4.71994 31.3629
2919 1 21.2825 -2.85816 18.8344
2920 1 21.2825 -4.11646 21.5258
2921 1 21.2825 -5.37476 24.2172
2922 1 21.2825 -6.63305 26.9085
2923 1 21.2825 -7.89135 29.5999
2924 1 21.2825 -9.14965 32.2912
2931 1 21.2825 0.112817 18.8344
2932 1 21.2825 -1.14548 21.5258
2933 1 21.2825 -2.40378 24.2172
2934 1 21.2825 -3.66207 26.9085
2935 1 21.2825 -4.92037 29.5999
2936 1 21.2825 -6.17867 32.2912
3075 1 8.63226 -2.58251 18.659
3076 1 8.63226 -3.8408 21.3504
3077 1 8.63226 -5.0991 24.0417
3078 1 8.63226 -6.3574 26.7331
3079 1 8.63226 -7.61569 29.4244